# vtk DataFile Version 2.0
generated by CFD-lab course output 
ASCII

DATASET STRUCTURED_GRID
DIMENSIONS  25 25 25 
POINTS 15625 float

1 1 1
2 1 1
3 1 1
4 1 1
5 1 1
6 1 1
7 1 1
8 1 1
9 1 1
10 1 1
11 1 1
12 1 1
13 1 1
14 1 1
15 1 1
16 1 1
17 1 1
18 1 1
19 1 1
20 1 1
21 1 1
22 1 1
23 1 1
24 1 1
25 1 1
1 2 1
2 2 1
3 2 1
4 2 1
5 2 1
6 2 1
7 2 1
8 2 1
9 2 1
10 2 1
11 2 1
12 2 1
13 2 1
14 2 1
15 2 1
16 2 1
17 2 1
18 2 1
19 2 1
20 2 1
21 2 1
22 2 1
23 2 1
24 2 1
25 2 1
1 3 1
2 3 1
3 3 1
4 3 1
5 3 1
6 3 1
7 3 1
8 3 1
9 3 1
10 3 1
11 3 1
12 3 1
13 3 1
14 3 1
15 3 1
16 3 1
17 3 1
18 3 1
19 3 1
20 3 1
21 3 1
22 3 1
23 3 1
24 3 1
25 3 1
1 4 1
2 4 1
3 4 1
4 4 1
5 4 1
6 4 1
7 4 1
8 4 1
9 4 1
10 4 1
11 4 1
12 4 1
13 4 1
14 4 1
15 4 1
16 4 1
17 4 1
18 4 1
19 4 1
20 4 1
21 4 1
22 4 1
23 4 1
24 4 1
25 4 1
1 5 1
2 5 1
3 5 1
4 5 1
5 5 1
6 5 1
7 5 1
8 5 1
9 5 1
10 5 1
11 5 1
12 5 1
13 5 1
14 5 1
15 5 1
16 5 1
17 5 1
18 5 1
19 5 1
20 5 1
21 5 1
22 5 1
23 5 1
24 5 1
25 5 1
1 6 1
2 6 1
3 6 1
4 6 1
5 6 1
6 6 1
7 6 1
8 6 1
9 6 1
10 6 1
11 6 1
12 6 1
13 6 1
14 6 1
15 6 1
16 6 1
17 6 1
18 6 1
19 6 1
20 6 1
21 6 1
22 6 1
23 6 1
24 6 1
25 6 1
1 7 1
2 7 1
3 7 1
4 7 1
5 7 1
6 7 1
7 7 1
8 7 1
9 7 1
10 7 1
11 7 1
12 7 1
13 7 1
14 7 1
15 7 1
16 7 1
17 7 1
18 7 1
19 7 1
20 7 1
21 7 1
22 7 1
23 7 1
24 7 1
25 7 1
1 8 1
2 8 1
3 8 1
4 8 1
5 8 1
6 8 1
7 8 1
8 8 1
9 8 1
10 8 1
11 8 1
12 8 1
13 8 1
14 8 1
15 8 1
16 8 1
17 8 1
18 8 1
19 8 1
20 8 1
21 8 1
22 8 1
23 8 1
24 8 1
25 8 1
1 9 1
2 9 1
3 9 1
4 9 1
5 9 1
6 9 1
7 9 1
8 9 1
9 9 1
10 9 1
11 9 1
12 9 1
13 9 1
14 9 1
15 9 1
16 9 1
17 9 1
18 9 1
19 9 1
20 9 1
21 9 1
22 9 1
23 9 1
24 9 1
25 9 1
1 10 1
2 10 1
3 10 1
4 10 1
5 10 1
6 10 1
7 10 1
8 10 1
9 10 1
10 10 1
11 10 1
12 10 1
13 10 1
14 10 1
15 10 1
16 10 1
17 10 1
18 10 1
19 10 1
20 10 1
21 10 1
22 10 1
23 10 1
24 10 1
25 10 1
1 11 1
2 11 1
3 11 1
4 11 1
5 11 1
6 11 1
7 11 1
8 11 1
9 11 1
10 11 1
11 11 1
12 11 1
13 11 1
14 11 1
15 11 1
16 11 1
17 11 1
18 11 1
19 11 1
20 11 1
21 11 1
22 11 1
23 11 1
24 11 1
25 11 1
1 12 1
2 12 1
3 12 1
4 12 1
5 12 1
6 12 1
7 12 1
8 12 1
9 12 1
10 12 1
11 12 1
12 12 1
13 12 1
14 12 1
15 12 1
16 12 1
17 12 1
18 12 1
19 12 1
20 12 1
21 12 1
22 12 1
23 12 1
24 12 1
25 12 1
1 13 1
2 13 1
3 13 1
4 13 1
5 13 1
6 13 1
7 13 1
8 13 1
9 13 1
10 13 1
11 13 1
12 13 1
13 13 1
14 13 1
15 13 1
16 13 1
17 13 1
18 13 1
19 13 1
20 13 1
21 13 1
22 13 1
23 13 1
24 13 1
25 13 1
1 14 1
2 14 1
3 14 1
4 14 1
5 14 1
6 14 1
7 14 1
8 14 1
9 14 1
10 14 1
11 14 1
12 14 1
13 14 1
14 14 1
15 14 1
16 14 1
17 14 1
18 14 1
19 14 1
20 14 1
21 14 1
22 14 1
23 14 1
24 14 1
25 14 1
1 15 1
2 15 1
3 15 1
4 15 1
5 15 1
6 15 1
7 15 1
8 15 1
9 15 1
10 15 1
11 15 1
12 15 1
13 15 1
14 15 1
15 15 1
16 15 1
17 15 1
18 15 1
19 15 1
20 15 1
21 15 1
22 15 1
23 15 1
24 15 1
25 15 1
1 16 1
2 16 1
3 16 1
4 16 1
5 16 1
6 16 1
7 16 1
8 16 1
9 16 1
10 16 1
11 16 1
12 16 1
13 16 1
14 16 1
15 16 1
16 16 1
17 16 1
18 16 1
19 16 1
20 16 1
21 16 1
22 16 1
23 16 1
24 16 1
25 16 1
1 17 1
2 17 1
3 17 1
4 17 1
5 17 1
6 17 1
7 17 1
8 17 1
9 17 1
10 17 1
11 17 1
12 17 1
13 17 1
14 17 1
15 17 1
16 17 1
17 17 1
18 17 1
19 17 1
20 17 1
21 17 1
22 17 1
23 17 1
24 17 1
25 17 1
1 18 1
2 18 1
3 18 1
4 18 1
5 18 1
6 18 1
7 18 1
8 18 1
9 18 1
10 18 1
11 18 1
12 18 1
13 18 1
14 18 1
15 18 1
16 18 1
17 18 1
18 18 1
19 18 1
20 18 1
21 18 1
22 18 1
23 18 1
24 18 1
25 18 1
1 19 1
2 19 1
3 19 1
4 19 1
5 19 1
6 19 1
7 19 1
8 19 1
9 19 1
10 19 1
11 19 1
12 19 1
13 19 1
14 19 1
15 19 1
16 19 1
17 19 1
18 19 1
19 19 1
20 19 1
21 19 1
22 19 1
23 19 1
24 19 1
25 19 1
1 20 1
2 20 1
3 20 1
4 20 1
5 20 1
6 20 1
7 20 1
8 20 1
9 20 1
10 20 1
11 20 1
12 20 1
13 20 1
14 20 1
15 20 1
16 20 1
17 20 1
18 20 1
19 20 1
20 20 1
21 20 1
22 20 1
23 20 1
24 20 1
25 20 1
1 21 1
2 21 1
3 21 1
4 21 1
5 21 1
6 21 1
7 21 1
8 21 1
9 21 1
10 21 1
11 21 1
12 21 1
13 21 1
14 21 1
15 21 1
16 21 1
17 21 1
18 21 1
19 21 1
20 21 1
21 21 1
22 21 1
23 21 1
24 21 1
25 21 1
1 22 1
2 22 1
3 22 1
4 22 1
5 22 1
6 22 1
7 22 1
8 22 1
9 22 1
10 22 1
11 22 1
12 22 1
13 22 1
14 22 1
15 22 1
16 22 1
17 22 1
18 22 1
19 22 1
20 22 1
21 22 1
22 22 1
23 22 1
24 22 1
25 22 1
1 23 1
2 23 1
3 23 1
4 23 1
5 23 1
6 23 1
7 23 1
8 23 1
9 23 1
10 23 1
11 23 1
12 23 1
13 23 1
14 23 1
15 23 1
16 23 1
17 23 1
18 23 1
19 23 1
20 23 1
21 23 1
22 23 1
23 23 1
24 23 1
25 23 1
1 24 1
2 24 1
3 24 1
4 24 1
5 24 1
6 24 1
7 24 1
8 24 1
9 24 1
10 24 1
11 24 1
12 24 1
13 24 1
14 24 1
15 24 1
16 24 1
17 24 1
18 24 1
19 24 1
20 24 1
21 24 1
22 24 1
23 24 1
24 24 1
25 24 1
1 25 1
2 25 1
3 25 1
4 25 1
5 25 1
6 25 1
7 25 1
8 25 1
9 25 1
10 25 1
11 25 1
12 25 1
13 25 1
14 25 1
15 25 1
16 25 1
17 25 1
18 25 1
19 25 1
20 25 1
21 25 1
22 25 1
23 25 1
24 25 1
25 25 1
1 1 2
2 1 2
3 1 2
4 1 2
5 1 2
6 1 2
7 1 2
8 1 2
9 1 2
10 1 2
11 1 2
12 1 2
13 1 2
14 1 2
15 1 2
16 1 2
17 1 2
18 1 2
19 1 2
20 1 2
21 1 2
22 1 2
23 1 2
24 1 2
25 1 2
1 2 2
2 2 2
3 2 2
4 2 2
5 2 2
6 2 2
7 2 2
8 2 2
9 2 2
10 2 2
11 2 2
12 2 2
13 2 2
14 2 2
15 2 2
16 2 2
17 2 2
18 2 2
19 2 2
20 2 2
21 2 2
22 2 2
23 2 2
24 2 2
25 2 2
1 3 2
2 3 2
3 3 2
4 3 2
5 3 2
6 3 2
7 3 2
8 3 2
9 3 2
10 3 2
11 3 2
12 3 2
13 3 2
14 3 2
15 3 2
16 3 2
17 3 2
18 3 2
19 3 2
20 3 2
21 3 2
22 3 2
23 3 2
24 3 2
25 3 2
1 4 2
2 4 2
3 4 2
4 4 2
5 4 2
6 4 2
7 4 2
8 4 2
9 4 2
10 4 2
11 4 2
12 4 2
13 4 2
14 4 2
15 4 2
16 4 2
17 4 2
18 4 2
19 4 2
20 4 2
21 4 2
22 4 2
23 4 2
24 4 2
25 4 2
1 5 2
2 5 2
3 5 2
4 5 2
5 5 2
6 5 2
7 5 2
8 5 2
9 5 2
10 5 2
11 5 2
12 5 2
13 5 2
14 5 2
15 5 2
16 5 2
17 5 2
18 5 2
19 5 2
20 5 2
21 5 2
22 5 2
23 5 2
24 5 2
25 5 2
1 6 2
2 6 2
3 6 2
4 6 2
5 6 2
6 6 2
7 6 2
8 6 2
9 6 2
10 6 2
11 6 2
12 6 2
13 6 2
14 6 2
15 6 2
16 6 2
17 6 2
18 6 2
19 6 2
20 6 2
21 6 2
22 6 2
23 6 2
24 6 2
25 6 2
1 7 2
2 7 2
3 7 2
4 7 2
5 7 2
6 7 2
7 7 2
8 7 2
9 7 2
10 7 2
11 7 2
12 7 2
13 7 2
14 7 2
15 7 2
16 7 2
17 7 2
18 7 2
19 7 2
20 7 2
21 7 2
22 7 2
23 7 2
24 7 2
25 7 2
1 8 2
2 8 2
3 8 2
4 8 2
5 8 2
6 8 2
7 8 2
8 8 2
9 8 2
10 8 2
11 8 2
12 8 2
13 8 2
14 8 2
15 8 2
16 8 2
17 8 2
18 8 2
19 8 2
20 8 2
21 8 2
22 8 2
23 8 2
24 8 2
25 8 2
1 9 2
2 9 2
3 9 2
4 9 2
5 9 2
6 9 2
7 9 2
8 9 2
9 9 2
10 9 2
11 9 2
12 9 2
13 9 2
14 9 2
15 9 2
16 9 2
17 9 2
18 9 2
19 9 2
20 9 2
21 9 2
22 9 2
23 9 2
24 9 2
25 9 2
1 10 2
2 10 2
3 10 2
4 10 2
5 10 2
6 10 2
7 10 2
8 10 2
9 10 2
10 10 2
11 10 2
12 10 2
13 10 2
14 10 2
15 10 2
16 10 2
17 10 2
18 10 2
19 10 2
20 10 2
21 10 2
22 10 2
23 10 2
24 10 2
25 10 2
1 11 2
2 11 2
3 11 2
4 11 2
5 11 2
6 11 2
7 11 2
8 11 2
9 11 2
10 11 2
11 11 2
12 11 2
13 11 2
14 11 2
15 11 2
16 11 2
17 11 2
18 11 2
19 11 2
20 11 2
21 11 2
22 11 2
23 11 2
24 11 2
25 11 2
1 12 2
2 12 2
3 12 2
4 12 2
5 12 2
6 12 2
7 12 2
8 12 2
9 12 2
10 12 2
11 12 2
12 12 2
13 12 2
14 12 2
15 12 2
16 12 2
17 12 2
18 12 2
19 12 2
20 12 2
21 12 2
22 12 2
23 12 2
24 12 2
25 12 2
1 13 2
2 13 2
3 13 2
4 13 2
5 13 2
6 13 2
7 13 2
8 13 2
9 13 2
10 13 2
11 13 2
12 13 2
13 13 2
14 13 2
15 13 2
16 13 2
17 13 2
18 13 2
19 13 2
20 13 2
21 13 2
22 13 2
23 13 2
24 13 2
25 13 2
1 14 2
2 14 2
3 14 2
4 14 2
5 14 2
6 14 2
7 14 2
8 14 2
9 14 2
10 14 2
11 14 2
12 14 2
13 14 2
14 14 2
15 14 2
16 14 2
17 14 2
18 14 2
19 14 2
20 14 2
21 14 2
22 14 2
23 14 2
24 14 2
25 14 2
1 15 2
2 15 2
3 15 2
4 15 2
5 15 2
6 15 2
7 15 2
8 15 2
9 15 2
10 15 2
11 15 2
12 15 2
13 15 2
14 15 2
15 15 2
16 15 2
17 15 2
18 15 2
19 15 2
20 15 2
21 15 2
22 15 2
23 15 2
24 15 2
25 15 2
1 16 2
2 16 2
3 16 2
4 16 2
5 16 2
6 16 2
7 16 2
8 16 2
9 16 2
10 16 2
11 16 2
12 16 2
13 16 2
14 16 2
15 16 2
16 16 2
17 16 2
18 16 2
19 16 2
20 16 2
21 16 2
22 16 2
23 16 2
24 16 2
25 16 2
1 17 2
2 17 2
3 17 2
4 17 2
5 17 2
6 17 2
7 17 2
8 17 2
9 17 2
10 17 2
11 17 2
12 17 2
13 17 2
14 17 2
15 17 2
16 17 2
17 17 2
18 17 2
19 17 2
20 17 2
21 17 2
22 17 2
23 17 2
24 17 2
25 17 2
1 18 2
2 18 2
3 18 2
4 18 2
5 18 2
6 18 2
7 18 2
8 18 2
9 18 2
10 18 2
11 18 2
12 18 2
13 18 2
14 18 2
15 18 2
16 18 2
17 18 2
18 18 2
19 18 2
20 18 2
21 18 2
22 18 2
23 18 2
24 18 2
25 18 2
1 19 2
2 19 2
3 19 2
4 19 2
5 19 2
6 19 2
7 19 2
8 19 2
9 19 2
10 19 2
11 19 2
12 19 2
13 19 2
14 19 2
15 19 2
16 19 2
17 19 2
18 19 2
19 19 2
20 19 2
21 19 2
22 19 2
23 19 2
24 19 2
25 19 2
1 20 2
2 20 2
3 20 2
4 20 2
5 20 2
6 20 2
7 20 2
8 20 2
9 20 2
10 20 2
11 20 2
12 20 2
13 20 2
14 20 2
15 20 2
16 20 2
17 20 2
18 20 2
19 20 2
20 20 2
21 20 2
22 20 2
23 20 2
24 20 2
25 20 2
1 21 2
2 21 2
3 21 2
4 21 2
5 21 2
6 21 2
7 21 2
8 21 2
9 21 2
10 21 2
11 21 2
12 21 2
13 21 2
14 21 2
15 21 2
16 21 2
17 21 2
18 21 2
19 21 2
20 21 2
21 21 2
22 21 2
23 21 2
24 21 2
25 21 2
1 22 2
2 22 2
3 22 2
4 22 2
5 22 2
6 22 2
7 22 2
8 22 2
9 22 2
10 22 2
11 22 2
12 22 2
13 22 2
14 22 2
15 22 2
16 22 2
17 22 2
18 22 2
19 22 2
20 22 2
21 22 2
22 22 2
23 22 2
24 22 2
25 22 2
1 23 2
2 23 2
3 23 2
4 23 2
5 23 2
6 23 2
7 23 2
8 23 2
9 23 2
10 23 2
11 23 2
12 23 2
13 23 2
14 23 2
15 23 2
16 23 2
17 23 2
18 23 2
19 23 2
20 23 2
21 23 2
22 23 2
23 23 2
24 23 2
25 23 2
1 24 2
2 24 2
3 24 2
4 24 2
5 24 2
6 24 2
7 24 2
8 24 2
9 24 2
10 24 2
11 24 2
12 24 2
13 24 2
14 24 2
15 24 2
16 24 2
17 24 2
18 24 2
19 24 2
20 24 2
21 24 2
22 24 2
23 24 2
24 24 2
25 24 2
1 25 2
2 25 2
3 25 2
4 25 2
5 25 2
6 25 2
7 25 2
8 25 2
9 25 2
10 25 2
11 25 2
12 25 2
13 25 2
14 25 2
15 25 2
16 25 2
17 25 2
18 25 2
19 25 2
20 25 2
21 25 2
22 25 2
23 25 2
24 25 2
25 25 2
1 1 3
2 1 3
3 1 3
4 1 3
5 1 3
6 1 3
7 1 3
8 1 3
9 1 3
10 1 3
11 1 3
12 1 3
13 1 3
14 1 3
15 1 3
16 1 3
17 1 3
18 1 3
19 1 3
20 1 3
21 1 3
22 1 3
23 1 3
24 1 3
25 1 3
1 2 3
2 2 3
3 2 3
4 2 3
5 2 3
6 2 3
7 2 3
8 2 3
9 2 3
10 2 3
11 2 3
12 2 3
13 2 3
14 2 3
15 2 3
16 2 3
17 2 3
18 2 3
19 2 3
20 2 3
21 2 3
22 2 3
23 2 3
24 2 3
25 2 3
1 3 3
2 3 3
3 3 3
4 3 3
5 3 3
6 3 3
7 3 3
8 3 3
9 3 3
10 3 3
11 3 3
12 3 3
13 3 3
14 3 3
15 3 3
16 3 3
17 3 3
18 3 3
19 3 3
20 3 3
21 3 3
22 3 3
23 3 3
24 3 3
25 3 3
1 4 3
2 4 3
3 4 3
4 4 3
5 4 3
6 4 3
7 4 3
8 4 3
9 4 3
10 4 3
11 4 3
12 4 3
13 4 3
14 4 3
15 4 3
16 4 3
17 4 3
18 4 3
19 4 3
20 4 3
21 4 3
22 4 3
23 4 3
24 4 3
25 4 3
1 5 3
2 5 3
3 5 3
4 5 3
5 5 3
6 5 3
7 5 3
8 5 3
9 5 3
10 5 3
11 5 3
12 5 3
13 5 3
14 5 3
15 5 3
[...]
POINT_DATA 15625 
SCALARS density float 1 
LOOKUP_TABLE default 
0.994246
0.994188
0.994260
0.994462
0.994786
0.995218
0.995744
0.996348
0.997015
0.997731
0.998483
0.999258
1.000043
1.000828
1.001602
1.002351
1.003065
1.003728
1.004328
1.004849
1.005276
1.005595
1.005794
1.005866
1.005813
0.994183
0.994182
0.994279
0.994494
0.994825
0.995261
0.995787
0.996389
0.997052
0.997762
0.998505
0.999270
1.000045
1.000820
1.001584
1.002324
1.003030
1.003688
1.004284
1.004804
1.005233
1.005557
1.005768
1.005864
1.005869
0.994166
0.994190
0.994299
0.994520
0.994854
0.995291
0.995818
0.996418
0.997077
0.997782
0.998520
0.999278
1.000047
1.000815
1.001572
1.002307
1.003007
1.003661
1.004254
1.004772
1.005201
1.005528
1.005743
1.005851
1.005879
0.994179
0.994217
0.994334
0.994557
0.994892
0.995328
0.995852
0.996449
0.997104
0.997803
0.998535
0.999287
1.000049
1.000810
1.001560
1.002289
1.002983
1.003631
1.004220
1.004735
1.005162
1.005488
1.005705
1.005819
1.005862
0.994210
0.994261
0.994383
0.994608
0.994942
0.995375
0.995895
0.996486
0.997135
0.997827
0.998552
0.999296
1.000050
1.000804
1.001546
1.002267
1.002954
1.003596
1.004179
1.004689
1.005112
1.005436
1.005653
1.005772
1.005828
0.994251
0.994314
0.994442
0.994668
0.995000
0.995429
0.995944
0.996529
0.997170
0.997855
0.998571
0.999306
1.000052
1.000797
1.001530
1.002242
1.002921
1.003555
1.004131
1.004635
1.005054
1.005375
1.005592
1.005716
1.005784
0.994297
0.994372
0.994504
0.994731
0.995060
0.995486
0.995995
0.996573
0.997207
0.997883
0.998590
0.999317
1.000053
1.000789
1.001513
1.002216
1.002887
1.003513
1.004081
1.004579
1.004992
1.005310
1.005528
1.005657
1.005735
0.994344
0.994428
0.994565
0.994792
0.995119
0.995540
0.996044
0.996615
0.997241
0.997909
0.998608
0.999327
1.000054
1.000781
1.001497
1.002192
1.002854
1.003472
1.004033
1.004525
1.004933
1.005249
1.005466
1.005599
1.005686
0.994387
0.994479
0.994619
0.994846
0.995171
0.995589
0.996087
0.996653
0.997272
0.997933
0.998625
0.999335
1.000055
1.000774
1.001483
1.002170
1.002824
1.003435
1.003990
1.004476
1.004880
1.005193
1.005410
1.005546
1.005641
0.994424
0.994522
0.994665
0.994892
0.995215
0.995630
0.996123
0.996684
0.997298
0.997953
0.998638
0.999343
1.000056
1.000769
1.001471
1.002151
1.002800
1.003405
1.003954
1.004436
1.004836
1.005146
1.005364
1.005502
1.005603
0.994452
0.994554
0.994699
0.994927
0.995248
0.995660
0.996150
0.996707
0.997317
0.997967
0.998648
0.999348
1.000057
1.000765
1.001462
1.002138
1.002782
1.003382
1.003928
1.004405
1.004803
1.005112
1.005328
1.005469
1.005574
0.994470
0.994574
0.994721
0.994948
0.995268
0.995679
0.996167
0.996721
0.997328
0.997976
0.998654
0.999351
1.000057
1.000762
1.001456
1.002129
1.002770
1.003368
1.003911
1.004387
1.004783
1.005090
1.005307
1.005448
1.005556
0.994476
0.994581
0.994728
0.994955
0.995275
0.995685
0.996173
0.996726
0.997332
0.997980
0.998656
0.999352
1.000057
1.000761
1.001454
1.002126
1.002766
1.003364
1.003906
1.004380
1.004776
1.005083
1.005299
1.005441
1.005550
0.994470
0.994574
0.994721
0.994948
0.995268
0.995679
0.996167
0.996721
0.997328
0.997976
0.998654
0.999351
1.000057
1.000762
1.001456
1.002129
1.002770
1.003368
1.003911
1.004387
1.004783
1.005090
1.005307
1.005448
1.005556
0.994452
0.994554
0.994699
0.994927
0.995248
0.995660
0.996150
0.996707
0.997317
0.997967
0.998648
0.999348
1.000057
1.000765
1.001462
1.002138
1.002782
1.003382
1.003928
1.004405
1.004803
1.005112
1.005328
1.005469
1.005574
0.994424
0.994522
0.994665
0.994892
0.995215
0.995630
0.996123
0.996684
0.997298
0.997953
0.998638
0.999343
1.000056
1.000769
1.001471
1.002151
1.002800
1.003405
1.003954
1.004436
1.004836
1.005146
1.005364
1.005502
1.005603
0.994387
0.994479
0.994619
0.994846
0.995171
0.995589
0.996087
0.996653
0.997272
0.997933
0.998625
0.999335
1.000055
1.000774
1.001483
1.002170
1.002824
1.003435
1.003990
1.004476
1.004880
1.005193
1.005410
1.005546
1.005641
0.994344
0.994428
0.994565
0.994792
0.995119
0.995540
0.996044
0.996615
0.997241
0.997909
0.998608
0.999327
1.000054
1.000781
1.001497
1.002192
1.002854
1.003472
1.004033
1.004525
1.004933
1.005249
1.005466
1.005599
1.005686
0.994297
0.994372
0.994504
0.994731
0.995060
0.995486
0.995995
0.996573
0.997207
0.997883
0.998590
0.999317
1.000053
1.000789
1.001513
1.002216
1.002887
1.003513
1.004081
1.004579
1.004992
1.005310
1.005528
1.005657
1.005735
0.994251
0.994314
0.994442
0.994668
0.995000
0.995429
0.995944
0.996529
0.997170
0.997855
0.998571
0.999306
1.000052
1.000797
1.001530
1.002242
1.002921
1.003555
1.004131
1.004635
1.005054
1.005375
1.005592
1.005716
1.005784
0.994210
0.994261
0.994383
0.994608
0.994942
0.995375
0.995895
0.996486
0.997135
0.997827
0.998552
0.999296
1.000050
1.000804
1.001546
1.002267
1.002954
1.003596
1.004179
1.004689
1.005112
1.005436
1.005653
1.005772
1.005828
0.994179
0.994217
0.994334
0.994557
0.994892
0.995328
0.995852
0.996449
0.997104
0.997803
0.998535
0.999287
1.000049
1.000810
1.001560
1.002289
1.002983
1.003631
1.004220
1.004735
1.005162
1.005488
1.005705
1.005819
1.005862
0.994166
0.994190
0.994299
0.994520
0.994854
0.995291
0.995818
0.996418
0.997077
0.997782
0.998520
0.999278
1.000047
1.000815
1.001572
1.002307
1.003007
1.003661
1.004254
1.004772
1.005201
1.005528
1.005743
1.005851
1.005879
0.994183
0.994182
0.994279
0.994494
0.994825
0.995261
0.995787
0.996389
0.997052
0.997762
0.998505
0.999270
1.000045
1.000820
1.001584
1.002324
1.003030
1.003688
1.004284
1.004804
1.005233
1.005557
1.005768
1.005864
1.005869
0.994246
0.994188
0.994260
0.994462
0.994786
0.995218
0.995744
0.996348
0.997015
0.997731
0.998483
0.999258
1.000043
1.000828
1.001602
1.002351
1.003065
1.003728
1.004328
1.004849
1.005276
1.005595
1.005794
1.005866
1.005813
0.994263
0.994258
0.994358
0.994574
0.994902
0.995331
0.995848
0.996439
0.997091
0.997790
0.998524
0.999279
1.000045
1.000811
1.001565
1.002296
1.002991
1.003638
1.004223
1.004734
1.005156
1.005477
1.005689
1.005787
1.005786
0.994271
0.994305
0.994427
0.994651
0.994979
0.995404
0.995915
0.996498
0.997140
0.997828
0.998550
0.999293
1.000046
1.000799
1.001540
1.002258
1.002942
1.003579
1.004155
1.004658
1.005075
1.005396
1.005615
1.005736
1.005772
0.994301
0.994353
0.994487
0.994717
0.995046
0.995468
0.995973
0.996549
0.997182
0.997861
0.998572
0.999305
1.000047
1.000789
1.001520
1.002228
1.002902
1.003529
1.004097
1.004594
1.005007
1.005327
1.005551
1.005683
1.005737
0.994345
0.994406
0.994547
0.994780
0.995108
0.995526
0.996026
0.996595
0.997221
0.997891
0.998593
0.999316
1.000049
1.000781
1.001502
1.002201
1.002865
1.003484
1.004045
1.004535
1.004944
1.005263
1.005489
1.005627
1.005689
0.994398
0.994463
0.994608
0.994842
0.995169
0.995584
0.996078
0.996640
0.997258
0.997919
0.998613
0.999327
1.000051
1.000774
1.001486
1.002175
1.002831
1.003441
1.003994
1.004478
1.004882
1.005199
1.005425
1.005566
1.005633
0.994454
0.994524
0.994671
0.994906
0.995230
0.995640
0.996128
0.996683
0.997293
0.997947
0.998632
0.999337
1.000052
1.000766
1.001469
1.002150
1.002797
1.003399
1.003945
1.004422
1.004821
1.005135
1.005361
1.005503
1.005575
0.994511
0.994585
0.994734
0.994968
0.995289
0.995695
0.996177
0.996725
0.997328
0.997973
0.998650
0.999347
1.000054
1.000759
1.001454
1.002126
1.002765
1.003359
1.003897
1.004368
1.004762
1.005072
1.005297
1.005441
1.005516
0.994565
0.994643
0.994794
0.995026
0.995345
0.995746
0.996223
0.996764
0.997360
0.997998
0.998667
0.999356
1.000055
1.000753
1.001440
1.002104
1.002735
1.003322
1.003853
1.004318
1.004706
1.005013
1.005236
1.005382
1.005461
0.994614
0.994695
0.994847
0.995078
0.995394
0.995791
0.996263
0.996799
0.997388
0.998019
0.998681
0.999364
1.000056
1.000747
1.001427
1.002084
1.002709
1.003289
1.003814
1.004273
1.004657
1.004961
1.005183
1.005329
1.005411
0.994654
0.994738
0.994891
0.995122
0.995435
0.995829
0.996296
0.996827
0.997411
0.998036
0.998693
0.999370
1.000057
1.000742
1.001416
1.002068
1.002687
1.003262
1.003781
1.004236
1.004616
1.004917
1.005138
1.005285
1.005369
0.994685
0.994771
0.994924
0.995154
0.995465
0.995857
0.996320
0.996848
0.997428
0.998049
0.998702
0.999375
1.000057
1.000739
1.001409
1.002056
1.002671
1.003241
1.003757
1.004208
1.004586
1.004885
1.005105
1.005252
1.005338
0.994704
0.994791
0.994944
0.995174
0.995484
0.995874
0.996336
0.996861
0.997438
0.998057
0.998708
0.999378
1.000058
1.000737
1.001404
1.002049
1.002661
1.003229
1.003742
1.004191
1.004567
1.004865
1.005084
1.005231
1.005318
0.994711
0.994798
0.994951
0.995181
0.995491
0.995880
0.996341
0.996865
0.997442
0.998060
0.998710
0.999379
1.000058
1.000736
1.001402
1.002046
1.002657
1.003225
1.003737
1.004185
1.004561
1.004858
1.005077
1.005224
1.005311
0.994704
0.994791
0.994944
0.995174
0.995484
0.995874
0.996336
0.996861
0.997438
0.998057
0.998708
0.999378
1.000058
1.000737
1.001404
1.002049
1.002661
1.003229
1.003742
1.004191
1.004567
1.004865
1.005084
1.005231
1.005318
0.994685
0.994771
0.994924
0.995154
0.995465
0.995857
0.996320
0.996848
0.997428
0.998049
0.998702
0.999375
1.000057
1.000739
1.001409
1.002056
1.002671
1.003241
1.003757
1.004208
1.004586
1.004885
1.005105
1.005252
1.005338
0.994654
0.994738
0.994891
0.995122
0.995435
0.995829
0.996296
0.996827
0.997411
0.998036
0.998693
0.999370
1.000057
1.000742
1.001416
1.002068
1.002687
1.003262
1.003781
1.004236
1.004616
1.004917
1.005138
1.005285
1.005369
0.994614
0.994695
0.994847
0.995078
0.995394
0.995791
0.996263
0.996799
0.997388
0.998019
0.998681
0.999364
1.000056
1.000747
1.001427
1.002084
1.002709
1.003289
1.003814
1.004273
1.004657
1.004961
1.005183
1.005329
1.005411
0.994565
0.994643
0.994794
0.995026
0.995345
0.995746
0.996223
0.996764
0.997360
0.997998
0.998667
0.999356
1.000055
1.000753
1.001440
1.002104
1.002735
1.003322
1.003853
1.004318
1.004706
1.005013
1.005236
1.005382
1.005461
0.994511
0.994585
0.994734
0.994968
0.995289
0.995695
0.996177
0.996725
0.997328
0.997973
0.998650
0.999347
1.000054
1.000759
1.001454
1.002126
1.002765
1.003359
1.003897
1.004368
1.004762
1.005072
1.005297
1.005441
1.005516
0.994454
0.994524
0.994671
0.994906
0.995230
0.995640
0.996128
0.996683
0.997293
0.997947
0.998632
0.999337
1.000052
1.000766
1.001469
1.002150
1.002797
1.003399
1.003945
1.004422
1.004821
1.005135
1.005361
1.005503
1.005575
0.994398
0.994463
0.994608
0.994842
0.995169
0.995584
0.996078
0.996640
0.997258
0.997919
0.998613
0.999327
1.000051
1.000774
1.001486
1.002175
1.002831
1.003441
1.003994
1.004478
1.004882
1.005199
1.005425
1.005566
1.005633
0.994345
0.994406
0.994547
0.994780
0.995108
0.995526
0.996026
0.996595
0.997221
0.997891
0.998593
0.999316
1.000049
1.000781
1.001502
1.002201
1.002865
1.003484
1.004045
1.004535
1.004944
1.005263
1.005489
1.005627
1.005689
0.994301
0.994353
0.994487
0.994717
0.995046
0.995468
0.995973
0.996549
0.997182
0.997861
0.998572
0.999305
1.000047
1.000789
1.001520
1.002228
1.002902
1.003529
1.004097
1.004594
1.005007
1.005327
1.005551
1.005683
1.005737
0.994271
0.994305
0.994427
0.994651
0.994979
0.995404
0.995915
0.996498
0.997140
0.997828
0.998550
0.999293
1.000046
1.000799
1.001540
1.002258
1.002942
1.003579
1.004155
1.004658
1.005075
1.005396
1.005615
1.005736
1.005772
0.994263
0.994258
0.994358
0.994574
0.994902
0.995331
0.995848
0.996439
0.997091
0.997790
0.998524
0.999279
1.000045
1.000811
1.001565
1.002296
1.002991
1.003638
1.004223
1.004734
1.005156
1.005477
1.005689
1.005787
1.005786
0.994434
0.994455
0.994569
0.994788
0.995108
0.995522
0.996019
0.996586
0.997211
0.997881
0.998585
0.999310
1.000046
1.000781
1.001504
1.002204
1.002870
1.003488
1.004048
1.004536
1.004941
1.005253
1.005466
1.005577
1.005600
0.994488
0.994535
0.994666
0.994889
0.995206
0.995612
0.996098
0.996653
0.997265
0.997922
0.998613
0.999324
1.000046
1.000767
1.001477
1.002163
1.002815
1.003420
1.003967
1.004444
1.004841
1.005149
1.005366
1.005494
1.005541
0.994556
0.994612
0.994749
0.994974
0.995288
0.995688
0.996166
0.996711
0.997312
0.997958
0.998637
0.999337
1.000047
1.000757
1.001454
1.002129
1.002769
1.003364
1.003900
1.004368
1.004758
1.005063
1.005280
1.005413
1.005469
0.994628
0.994687
0.994826
0.995051
0.995362
0.995756
0.996226
0.996762
0.997354
0.997990
0.998659
0.999349
1.000049
1.000748
1.001436
1.002100
1.002730
1.003314
1.003841
1.004301
1.004684
1.004986
1.005202
1.005337
1.005395
0.994700
0.994759
0.994898
0.995121
0.995429
0.995818
0.996280
0.996808
0.997392
0.998019
0.998678
0.999359
1.000051
1.000741
1.001419
1.002074
1.002695
1.003270
1.003789
1.004241
1.004618
1.004915
1.005129
1.005263
1.005322
0.994769
0.994828
0.994967
0.995188
0.995492
0.995875
0.996331
0.996851
0.997426
0.998045
0.998696
0.999369
1.000052
1.000734
1.001405
1.002051
1.002664
1.003230
1.003741
1.004185
1.004556
1.004848
1.005060
1.005193
1.005251
0.994834
0.994894
0.995032
0.995250
0.995550
0.995927
0.996377
0.996890
0.997458
0.998069
0.998713
0.999378
1.000054
1.000729
1.001391
1.002030
1.002635
1.003194
1.003696
1.004134
1.004499
1.004787
1.004995
1.005127
1.005186
0.994894
0.994954
0.995091
0.995307
0.995602
0.995975
0.996418
0.996925
0.997486
0.998090
0.998728
0.999386
1.000055
1.000724
1.001379
1.002012
1.002609
1.003161
1.003657
1.004088
1.004447
1.004730
1.004936
1.005066
1.005126
0.994946
0.995007
0.995143
0.995356
0.995648
0.996016
0.996454
0.996955
0.997510
0.998109
0.998740
0.999393
1.000057
1.000719
1.001369
1.001995
1.002587
1.003132
1.003622
1.004048
1.004402
1.004681
1.004885
1.005014
1.005073
0.994989
0.995050
0.995185
0.995397
0.995686
0.996049
0.996483
0.996979
0.997530
0.998124
0.998750
0.999399
1.000058
1.000716
1.001361
1.001982
1.002568
1.003109
1.003594
1.004015
1.004365
1.004641
1.004842
1.004970
1.005030
0.995021
0.995082
0.995217
0.995427
0.995713
0.996074
0.996505
0.996998
0.997544
0.998135
0.998758
0.999403
1.000058
1.000713
1.001355
1.001972
1.002555
1.003092
1.003573
1.003991
1.004338
1.004611
1.004811
1.004938
1.004998
0.995041
0.995102
0.995236
0.995445
0.995730
0.996089
0.996518
0.997009
0.997553
0.998141
0.998763
0.999406
1.000059
1.000711
1.001351
1.001966
1.002547
1.003081
1.003560
1.003976
1.004321
1.004593
1.004791
1.004918
1.004978
0.995047
0.995109
0.995243
0.995452
0.995736
0.996095
0.996522
0.997012
0.997556
0.998144
0.998764
0.999406
1.000059
1.000711
1.001349
1.001964
1.002544
1.003078
1.003556
1.003970
1.004315
1.004587
1.004785
1.004911
1.004971
0.995041
0.995102
0.995236
0.995445
0.995730
0.996089
0.996518
0.997009
0.997553
0.998141
0.998763
0.999406
1.000059
1.000711
1.001351
1.001966
1.002547
1.003081
1.003560
1.003976
1.004321
1.004593
1.004791
1.004918
1.004978
0.995021
0.995082
0.995217
0.995427
0.995713
0.996074
0.996505
0.996998
0.997544
0.998135
0.998758
0.999403
1.000058
1.000713
1.001355
1.001972
1.002555
1.003092
1.003573
1.003991
1.004338
1.004611
1.004811
1.004938
1.004998
0.994989
0.995050
0.995185
0.995397
0.995686
0.996049
0.996483
0.996979
0.997530
0.998124
0.998750
0.999399
1.000058
1.000716
1.001361
1.001982
1.002568
1.003109
1.003594
1.004015
1.004365
1.004641
1.004842
1.004970
1.005030
0.994946
0.995007
0.995143
0.995356
0.995648
0.996016
0.996454
0.996955
0.997510
0.998109
0.998740
0.999393
1.000057
1.000719
1.001369
1.001995
1.002587
1.003132
1.003622
1.004048
1.004402
1.004681
1.004885
1.005014
1.005073
0.994894
0.994954
0.995091
0.995307
0.995602
0.995975
0.996418
0.996925
0.997486
0.998090
0.998728
0.999386
1.000055
1.000724
1.001379
1.002012
1.002609
1.003161
1.003657
1.004088
1.004447
1.004730
1.004936
1.005066
1.005126
0.994834
0.994894
0.995032
0.995250
0.995550
0.995927
0.996377
0.996890
0.997458
0.998069
0.998713
0.999378
1.000054
1.000729
1.001391
1.002030
1.002635
1.003194
1.003696
1.004134
1.004499
1.004787
1.004995
1.005127
1.005186
0.994769
0.994828
0.994967
0.995188
0.995492
0.995875
0.996331
0.996851
0.997426
0.998045
0.998696
0.999369
1.000052
1.000734
1.001405
1.002051
1.002664
1.003230
1.003741
1.004185
1.004556
1.004848
1.005060
1.005193
1.005251
0.994700
0.994759
0.994898
0.995121
0.995429
0.995818
0.996280
0.996808
0.997392
0.998019
0.998678
0.999359
1.000051
1.000741
1.001419
1.002074
1.002695
1.003270
1.003789
1.004241
1.004618
1.004915
1.005129
1.005263
1.005322
0.994628
0.994687
0.994826
0.995051
0.995362
0.995756
0.996226
0.996762
0.997354
0.997990
0.998659
0.999349
1.000049
1.000748
1.001436
1.002100
1.002730
1.003314
1.003841
1.004301
1.004684
1.004986
1.005202
1.005337
1.005395
0.994556
0.994612
0.994749
0.994974
0.995288
0.995688
0.996166
0.996711
0.997312
0.997958
0.998637
0.999337
1.000047
1.000757
1.001454
1.002129
1.002769
1.003364
1.003900
1.004368
1.004758
1.005063
1.005280
1.005413
1.005469
0.994488
0.994535
0.994666
0.994889
0.995206
0.995612
0.996098
0.996653
0.997265
0.997922
0.998613
0.999324
1.000046
1.000767
1.001477
1.002163
1.002815
1.003420
1.003967
1.004444
1.004841
1.005149
1.005366
1.005494
1.005541
0.994434
0.994455
0.994569
0.994788
0.995108
0.995522
0.996019
0.996586
0.997211
0.997881
0.998585
0.999310
1.000046
1.000781
1.001504
1.002204
1.002870
1.003488
1.004048
1.004536
1.004941
1.005253
1.005466
1.005577
1.005600
0.994715
0.994756
0.994875
0.995087
0.995390
0.995779
0.996245
0.996778
0.997366
0.997998
0.998663
0.999349
1.000045
1.000740
1.001424
1.002084
1.002710
1.003290
1.003814
1.004269
1.004647
1.004941
1.005144
1.005258
1.005300
0.994804
0.994853
0.994982
0.995194
0.995492
0.995871
0.996325
0.996844
0.997419
0.998038
0.998689
0.999362
1.000045
1.000728
1.001398
1.002045
1.002657
1.003224
1.003733
1.004177
1.004545
1.004832
1.005036
1.005159
1.005207
0.994902
0.994950
0.995078
0.995287
0.995579
0.995949
0.996393
0.996901
0.997464
0.998072
0.998712
0.999374
1.000046
1.000718
1.001377
1.002013
1.002614
1.003168
1.003667
1.004099
1.004458
1.004739
1.004940
1.005061
1.005107
0.994996
0.995042
0.995165
0.995370
0.995655
0.996018
0.996452
0.996951
0.997504
0.998101
0.998732
0.999385
1.000048
1.000711
1.001360
1.001986
1.002577
1.003121
1.003609
1.004032
1.004383
1.004657
1.004852
1.004970
1.005012
0.995084
0.995126
0.995246
0.995446
0.995724
0.996079
0.996505
0.996994
0.997539
0.998127
0.998750
0.999395
1.000050
1.000705
1.001346
1.001964
1.002545
1.003081
1.003560
1.003973
1.004316
1.004583
1.004773
1.004886
1.004925
0.995164
0.995203
0.995319
0.995514
0.995786
0.996134
0.996552
0.997033
0.997569
0.998151
0.998766
0.999404
1.000052
1.000700
1.001334
1.001944
1.002518
1.003045
1.003515
1.003921
1.004256
1.004516
1.004701
1.004810
1.004846
0.995236
0.995273
0.995385
0.995576
0.995842
0.996183
0.996594
0.997068
0.997597
0.998171
0.998780
0.999412
1.000054
1.000696
1.001324
1.001927
1.002494
1.003014
1.003476
1.003874
1.004202
1.004456
1.004635
1.004741
1.004775
0.995299
0.995335
0.995444
0.995630
0.995891
0.996226
0.996630
0.997098
0.997620
0.998189
0.998792
0.999418
1.000056
1.000692
1.001315
1.001913
1.002473
1.002986
1.003442
1.003833
1.004155
1.004403
1.004578
1.004680
1.004712
0.995354
0.995388
0.995495
0.995677
0.995933
0.996263
0.996661
0.997123
0.997640
0.998204
0.998802
0.999424
1.000058
1.000690
1.001308
1.001901
1.002456
1.002963
1.003413
1.003799
1.004114
1.004358
1.004528
1.004628
1.004658
0.995398
0.995431
0.995536
0.995715
0.995967
0.996292
0.996686
0.997144
0.997657
0.998216
0.998811
0.999429
1.000059
1.000687
1.001302
1.001891
1.002442
1.002944
1.003390
1.003770
1.004082
1.004321
1.004488
1.004585
1.004615
0.995430
0.995462
0.995566
0.995743
0.995992
0.996314
0.996705
0.997159
0.997668
0.998225
0.998817
0.999432
1.000060
1.000686
1.001298
1.001883
1.002431
1.002930
1.003372
1.003749
1.004057
1.004294
1.004459
1.004554
1.004583
0.995450
0.995482
0.995584
0.995760
0.996008
0.996328
0.996716
0.997168
0.997676
0.998230
0.998820
0.999434
1.000060
1.000684
1.001295
1.001879
1.002425
1.002922
1.003362
1.003737
1.004043
1.004277
1.004441
1.004535
1.004564
0.995457
0.995488
0.995591
0.995765
0.996013
0.996332
0.996720
0.997171
0.997678
0.998232
0.998822
0.999435
1.000060
1.000684
1.001294
1.001877
1.002423
1.002919
1.003358
1.003732
1.004038
1.004272
1.004435
1.004529
1.004557
0.995450
0.995482
0.995584
0.995760
0.996008
0.996328
0.996716
0.997168
0.997676
0.998230
0.998820
0.999434
1.000060
1.000684
1.001295