# vtk DataFile Version 2.0
generated by CFD-lab course output 
ASCII

DATASET STRUCTURED_GRID
DIMENSIONS  25 25 25 
POINTS 15625 float

1 1 1
2 1 1
3 1 1
4 1 1
5 1 1
6 1 1
7 1 1
8 1 1
9 1 1
10 1 1
11 1 1
12 1 1
13 1 1
14 1 1
15 1 1
16 1 1
17 1 1
18 1 1
19 1 1
20 1 1
21 1 1
22 1 1
23 1 1
24 1 1
25 1 1
1 2 1
2 2 1
3 2 1
4 2 1
5 2 1
6 2 1
7 2 1
8 2 1
9 2 1
10 2 1
11 2 1
12 2 1
13 2 1
14 2 1
15 2 1
16 2 1
17 2 1
18 2 1
19 2 1
20 2 1
21 2 1
22 2 1
23 2 1
24 2 1
25 2 1
1 3 1
2 3 1
3 3 1
4 3 1
5 3 1
6 3 1
7 3 1
8 3 1
9 3 1
10 3 1
11 3 1
12 3 1
13 3 1
14 3 1
15 3 1
16 3 1
17 3 1
18 3 1
19 3 1
20 3 1
21 3 1
22 3 1
23 3 1
24 3 1
25 3 1
1 4 1
2 4 1
3 4 1
4 4 1
5 4 1
6 4 1
7 4 1
8 4 1
9 4 1
10 4 1
11 4 1
12 4 1
13 4 1
14 4 1
15 4 1
16 4 1
17 4 1
18 4 1
19 4 1
20 4 1
21 4 1
22 4 1
23 4 1
24 4 1
25 4 1
1 5 1
2 5 1
3 5 1
4 5 1
5 5 1
6 5 1
7 5 1
8 5 1
9 5 1
10 5 1
11 5 1
12 5 1
13 5 1
14 5 1
15 5 1
16 5 1
17 5 1
18 5 1
19 5 1
20 5 1
21 5 1
22 5 1
23 5 1
24 5 1
25 5 1
1 6 1
2 6 1
3 6 1
4 6 1
5 6 1
6 6 1
7 6 1
8 6 1
9 6 1
10 6 1
11 6 1
12 6 1
13 6 1
14 6 1
15 6 1
16 6 1
17 6 1
18 6 1
19 6 1
20 6 1
21 6 1
22 6 1
23 6 1
24 6 1
25 6 1
1 7 1
2 7 1
3 7 1
4 7 1
5 7 1
6 7 1
7 7 1
8 7 1
9 7 1
10 7 1
11 7 1
12 7 1
13 7 1
14 7 1
15 7 1
16 7 1
17 7 1
18 7 1
19 7 1
20 7 1
21 7 1
22 7 1
23 7 1
24 7 1
25 7 1
1 8 1
2 8 1
3 8 1
4 8 1
5 8 1
6 8 1
7 8 1
8 8 1
9 8 1
10 8 1
11 8 1
12 8 1
13 8 1
14 8 1
15 8 1
16 8 1
17 8 1
18 8 1
19 8 1
20 8 1
21 8 1
22 8 1
23 8 1
24 8 1
25 8 1
1 9 1
2 9 1
3 9 1
4 9 1
5 9 1
6 9 1
7 9 1
8 9 1
9 9 1
10 9 1
11 9 1
12 9 1
13 9 1
14 9 1
15 9 1
16 9 1
17 9 1
18 9 1
19 9 1
20 9 1
21 9 1
22 9 1
23 9 1
24 9 1
25 9 1
1 10 1
2 10 1
3 10 1
4 10 1
5 10 1
6 10 1
7 10 1
8 10 1
9 10 1
10 10 1
11 10 1
12 10 1
13 10 1
14 10 1
15 10 1
16 10 1
17 10 1
18 10 1
19 10 1
20 10 1
21 10 1
22 10 1
23 10 1
24 10 1
25 10 1
1 11 1
2 11 1
3 11 1
4 11 1
5 11 1
6 11 1
7 11 1
8 11 1
9 11 1
10 11 1
11 11 1
12 11 1
13 11 1
14 11 1
15 11 1
16 11 1
17 11 1
18 11 1
19 11 1
20 11 1
21 11 1
22 11 1
23 11 1
24 11 1
25 11 1
1 12 1
2 12 1
3 12 1
4 12 1
5 12 1
6 12 1
7 12 1
8 12 1
9 12 1
10 12 1
11 12 1
12 12 1
13 12 1
14 12 1
15 12 1
16 12 1
17 12 1
18 12 1
19 12 1
20 12 1
21 12 1
22 12 1
23 12 1
24 12 1
25 12 1
1 13 1
2 13 1
3 13 1
4 13 1
5 13 1
6 13 1
7 13 1
8 13 1
9 13 1
10 13 1
11 13 1
12 13 1
13 13 1
14 13 1
15 13 1
16 13 1
17 13 1
18 13 1
19 13 1
20 13 1
21 13 1
22 13 1
23 13 1
24 13 1
25 13 1
1 14 1
2 14 1
3 14 1
4 14 1
5 14 1
6 14 1
7 14 1
8 14 1
9 14 1
10 14 1
11 14 1
12 14 1
13 14 1
14 14 1
15 14 1
16 14 1
17 14 1
18 14 1
19 14 1
20 14 1
21 14 1
22 14 1
23 14 1
24 14 1
25 14 1
1 15 1
2 15 1
3 15 1
4 15 1
5 15 1
6 15 1
7 15 1
8 15 1
9 15 1
10 15 1
11 15 1
12 15 1
13 15 1
14 15 1
15 15 1
16 15 1
17 15 1
18 15 1
19 15 1
20 15 1
21 15 1
22 15 1
23 15 1
24 15 1
25 15 1
1 16 1
2 16 1
3 16 1
4 16 1
5 16 1
6 16 1
7 16 1
8 16 1
9 16 1
10 16 1
11 16 1
12 16 1
13 16 1
14 16 1
15 16 1
16 16 1
17 16 1
18 16 1
19 16 1
20 16 1
21 16 1
22 16 1
23 16 1
24 16 1
25 16 1
1 17 1
2 17 1
3 17 1
4 17 1
5 17 1
6 17 1
7 17 1
8 17 1
9 17 1
10 17 1
11 17 1
12 17 1
13 17 1
14 17 1
15 17 1
16 17 1
17 17 1
18 17 1
19 17 1
20 17 1
21 17 1
22 17 1
23 17 1
24 17 1
25 17 1
1 18 1
2 18 1
3 18 1
4 18 1
5 18 1
6 18 1
7 18 1
8 18 1
9 18 1
10 18 1
11 18 1
12 18 1
13 18 1
14 18 1
15 18 1
16 18 1
17 18 1
18 18 1
19 18 1
20 18 1
21 18 1
22 18 1
23 18 1
24 18 1
25 18 1
1 19 1
2 19 1
3 19 1
4 19 1
5 19 1
6 19 1
7 19 1
8 19 1
9 19 1
10 19 1
11 19 1
12 19 1
13 19 1
14 19 1
15 19 1
16 19 1
17 19 1
18 19 1
19 19 1
20 19 1
21 19 1
22 19 1
23 19 1
24 19 1
25 19 1
1 20 1
2 20 1
3 20 1
4 20 1
5 20 1
6 20 1
7 20 1
8 20 1
9 20 1
10 20 1
11 20 1
12 20 1
13 20 1
14 20 1
15 20 1
16 20 1
17 20 1
18 20 1
19 20 1
20 20 1
21 20 1
22 20 1
23 20 1
24 20 1
25 20 1
1 21 1
2 21 1
3 21 1
4 21 1
5 21 1
6 21 1
7 21 1
8 21 1
9 21 1
10 21 1
11 21 1
12 21 1
13 21 1
14 21 1
15 21 1
16 21 1
17 21 1
18 21 1
19 21 1
20 21 1
21 21 1
22 21 1
23 21 1
24 21 1
25 21 1
1 22 1
2 22 1
3 22 1
4 22 1
5 22 1
6 22 1
7 22 1
8 22 1
9 22 1
10 22 1
11 22 1
12 22 1
13 22 1
14 22 1
15 22 1
16 22 1
17 22 1
18 22 1
19 22 1
20 22 1
21 22 1
22 22 1
23 22 1
24 22 1
25 22 1
1 23 1
2 23 1
3 23 1
4 23 1
5 23 1
6 23 1
7 23 1
8 23 1
9 23 1
10 23 1
11 23 1
12 23 1
13 23 1
14 23 1
15 23 1
16 23 1
17 23 1
18 23 1
19 23 1
20 23 1
21 23 1
22 23 1
23 23 1
24 23 1
25 23 1
1 24 1
2 24 1
3 24 1
4 24 1
5 24 1
6 24 1
7 24 1
8 24 1
9 24 1
10 24 1
11 24 1
12 24 1
13 24 1
14 24 1
15 24 1
16 24 1
17 24 1
18 24 1
19 24 1
20 24 1
21 24 1
22 24 1
23 24 1
24 24 1
25 24 1
1 25 1
2 25 1
3 25 1
4 25 1
5 25 1
6 25 1
7 25 1
8 25 1
9 25 1
10 25 1
11 25 1
12 25 1
13 25 1
14 25 1
15 25 1
16 25 1
17 25 1
18 25 1
19 25 1
20 25 1
21 25 1
22 25 1
23 25 1
24 25 1
25 25 1
1 1 2
2 1 2
3 1 2
4 1 2
5 1 2
6 1 2
7 1 2
8 1 2
9 1 2
10 1 2
11 1 2
12 1 2
13 1 2
14 1 2
15 1 2
16 1 2
17 1 2
18 1 2
19 1 2
20 1 2
21 1 2
22 1 2
23 1 2
24 1 2
25 1 2
1 2 2
2 2 2
3 2 2
4 2 2
5 2 2
6 2 2
7 2 2
8 2 2
9 2 2
10 2 2
11 2 2
12 2 2
13 2 2
14 2 2
15 2 2
16 2 2
17 2 2
18 2 2
19 2 2
20 2 2
21 2 2
22 2 2
23 2 2
24 2 2
25 2 2
1 3 2
2 3 2
3 3 2
4 3 2
5 3 2
6 3 2
7 3 2
8 3 2
9 3 2
10 3 2
11 3 2
12 3 2
13 3 2
14 3 2
15 3 2
16 3 2
17 3 2
18 3 2
19 3 2
20 3 2
21 3 2
22 3 2
23 3 2
24 3 2
25 3 2
1 4 2
2 4 2
3 4 2
4 4 2
5 4 2
6 4 2
7 4 2
8 4 2
9 4 2
10 4 2
11 4 2
12 4 2
13 4 2
14 4 2
15 4 2
16 4 2
17 4 2
18 4 2
19 4 2
20 4 2
21 4 2
22 4 2
23 4 2
24 4 2
25 4 2
1 5 2
2 5 2
3 5 2
4 5 2
5 5 2
6 5 2
7 5 2
8 5 2
9 5 2
10 5 2
11 5 2
12 5 2
13 5 2
14 5 2
15 5 2
16 5 2
17 5 2
18 5 2
19 5 2
20 5 2
21 5 2
22 5 2
23 5 2
24 5 2
25 5 2
1 6 2
2 6 2
3 6 2
4 6 2
5 6 2
6 6 2
7 6 2
8 6 2
9 6 2
10 6 2
11 6 2
12 6 2
13 6 2
14 6 2
15 6 2
16 6 2
17 6 2
18 6 2
19 6 2
20 6 2
21 6 2
22 6 2
23 6 2
24 6 2
25 6 2
1 7 2
2 7 2
3 7 2
4 7 2
5 7 2
6 7 2
7 7 2
8 7 2
9 7 2
10 7 2
11 7 2
12 7 2
13 7 2
14 7 2
15 7 2
16 7 2
17 7 2
18 7 2
19 7 2
20 7 2
21 7 2
22 7 2
23 7 2
24 7 2
25 7 2
1 8 2
2 8 2
3 8 2
4 8 2
5 8 2
6 8 2
7 8 2
8 8 2
9 8 2
10 8 2
11 8 2
12 8 2
13 8 2
14 8 2
15 8 2
16 8 2
17 8 2
18 8 2
19 8 2
20 8 2
21 8 2
22 8 2
23 8 2
24 8 2
25 8 2
1 9 2
2 9 2
3 9 2
4 9 2
5 9 2
6 9 2
7 9 2
8 9 2
9 9 2
10 9 2
11 9 2
12 9 2
13 9 2
14 9 2
15 9 2
16 9 2
17 9 2
18 9 2
19 9 2
20 9 2
21 9 2
22 9 2
23 9 2
24 9 2
25 9 2
1 10 2
2 10 2
3 10 2
4 10 2
5 10 2
6 10 2
7 10 2
8 10 2
9 10 2
10 10 2
11 10 2
12 10 2
13 10 2
14 10 2
15 10 2
16 10 2
17 10 2
18 10 2
19 10 2
20 10 2
21 10 2
22 10 2
23 10 2
24 10 2
25 10 2
1 11 2
2 11 2
3 11 2
4 11 2
5 11 2
6 11 2
7 11 2
8 11 2
9 11 2
10 11 2
11 11 2
12 11 2
13 11 2
14 11 2
15 11 2
16 11 2
17 11 2
18 11 2
19 11 2
20 11 2
21 11 2
22 11 2
23 11 2
24 11 2
25 11 2
1 12 2
2 12 2
3 12 2
4 12 2
5 12 2
6 12 2
7 12 2
8 12 2
9 12 2
10 12 2
11 12 2
12 12 2
13 12 2
14 12 2
15 12 2
16 12 2
17 12 2
18 12 2
19 12 2
20 12 2
21 12 2
22 12 2
23 12 2
24 12 2
25 12 2
1 13 2
2 13 2
3 13 2
4 13 2
5 13 2
6 13 2
7 13 2
8 13 2
9 13 2
10 13 2
11 13 2
12 13 2
13 13 2
14 13 2
15 13 2
16 13 2
17 13 2
18 13 2
19 13 2
20 13 2
21 13 2
22 13 2
23 13 2
24 13 2
25 13 2
1 14 2
2 14 2
3 14 2
4 14 2
5 14 2
6 14 2
7 14 2
8 14 2
9 14 2
10 14 2
11 14 2
12 14 2
13 14 2
14 14 2
15 14 2
16 14 2
17 14 2
18 14 2
19 14 2
20 14 2
21 14 2
22 14 2
23 14 2
24 14 2
25 14 2
1 15 2
2 15 2
3 15 2
4 15 2
5 15 2
6 15 2
7 15 2
8 15 2
9 15 2
10 15 2
11 15 2
12 15 2
13 15 2
14 15 2
15 15 2
16 15 2
17 15 2
18 15 2
19 15 2
20 15 2
21 15 2
22 15 2
23 15 2
24 15 2
25 15 2
1 16 2
2 16 2
3 16 2
4 16 2
5 16 2
6 16 2
7 16 2
8 16 2
9 16 2
10 16 2
11 16 2
12 16 2
13 16 2
14 16 2
15 16 2
16 16 2
17 16 2
18 16 2
19 16 2
20 16 2
21 16 2
22 16 2
23 16 2
24 16 2
25 16 2
1 17 2
2 17 2
3 17 2
4 17 2
5 17 2
6 17 2
7 17 2
8 17 2
9 17 2
10 17 2
11 17 2
12 17 2
13 17 2
14 17 2
15 17 2
16 17 2
17 17 2
18 17 2
19 17 2
20 17 2
21 17 2
22 17 2
23 17 2
24 17 2
25 17 2
1 18 2
2 18 2
3 18 2
4 18 2
5 18 2
6 18 2
7 18 2
8 18 2
9 18 2
10 18 2
11 18 2
12 18 2
13 18 2
14 18 2
15 18 2
16 18 2
17 18 2
18 18 2
19 18 2
20 18 2
21 18 2
22 18 2
23 18 2
24 18 2
25 18 2
1 19 2
2 19 2
3 19 2
4 19 2
5 19 2
6 19 2
7 19 2
8 19 2
9 19 2
10 19 2
11 19 2
12 19 2
13 19 2
14 19 2
15 19 2
16 19 2
17 19 2
18 19 2
19 19 2
20 19 2
21 19 2
22 19 2
23 19 2
24 19 2
25 19 2
1 20 2
2 20 2
3 20 2
4 20 2
5 20 2
6 20 2
7 20 2
8 20 2
9 20 2
10 20 2
11 20 2
12 20 2
13 20 2
14 20 2
15 20 2
16 20 2
17 20 2
18 20 2
19 20 2
20 20 2
21 20 2
22 20 2
23 20 2
24 20 2
25 20 2
1 21 2
2 21 2
3 21 2
4 21 2
5 21 2
6 21 2
7 21 2
8 21 2
9 21 2
10 21 2
11 21 2
12 21 2
13 21 2
14 21 2
15 21 2
16 21 2
17 21 2
18 21 2
19 21 2
20 21 2
21 21 2
22 21 2
23 21 2
24 21 2
25 21 2
1 22 2
2 22 2
3 22 2
4 22 2
5 22 2
6 22 2
7 22 2
8 22 2
9 22 2
10 22 2
11 22 2
12 22 2
13 22 2
14 22 2
15 22 2
16 22 2
17 22 2
18 22 2
19 22 2
20 22 2
21 22 2
22 22 2
23 22 2
24 22 2
25 22 2
1 23 2
2 23 2
3 23 2
4 23 2
5 23 2
6 23 2
7 23 2
8 23 2
9 23 2
10 23 2
11 23 2
12 23 2
13 23 2
14 23 2
15 23 2
16 23 2
17 23 2
18 23 2
19 23 2
20 23 2
21 23 2
22 23 2
23 23 2
24 23 2
25 23 2
1 24 2
2 24 2
3 24 2
4 24 2
5 24 2
6 24 2
7 24 2
8 24 2
9 24 2
10 24 2
11 24 2
12 24 2
13 24 2
14 24 2
15 24 2
16 24 2
17 24 2
18 24 2
19 24 2
20 24 2
21 24 2
22 24 2
23 24 2
24 24 2
25 24 2
1 25 2
2 25 2
3 25 2
4 25 2
5 25 2
6 25 2
7 25 2
8 25 2
9 25 2
10 25 2
11 25 2
12 25 2
13 25 2
14 25 2
15 25 2
16 25 2
17 25 2
18 25 2
19 25 2
20 25 2
21 25 2
22 25 2
23 25 2
24 25 2
25 25 2
1 1 3
2 1 3
3 1 3
4 1 3
5 1 3
6 1 3
7 1 3
8 1 3
9 1 3
10 1 3
11 1 3
12 1 3
13 1 3
14 1 3
15 1 3
16 1 3
17 1 3
18 1 3
19 1 3
20 1 3
21 1 3
22 1 3
23 1 3
24 1 3
25 1 3
1 2 3
2 2 3
3 2 3
4 2 3
5 2 3
6 2 3
7 2 3
8 2 3
9 2 3
10 2 3
11 2 3
12 2 3
13 2 3
14 2 3
15 2 3
16 2 3
17 2 3
18 2 3
19 2 3
20 2 3
21 2 3
22 2 3
23 2 3
24 2 3
25 2 3
1 3 3
2 3 3
3 3 3
4 3 3
5 3 3
6 3 3
7 3 3
8 3 3
9 3 3
10 3 3
11 3 3
12 3 3
13 3 3
14 3 3
15 3 3
16 3 3
17 3 3
18 3 3
19 3 3
20 3 3
21 3 3
22 3 3
23 3 3
24 3 3
25 3 3
1 4 3
2 4 3
3 4 3
4 4 3
5 4 3
6 4 3
7 4 3
8 4 3
9 4 3
10 4 3
11 4 3
12 4 3
13 4 3
14 4 3
15 4 3
16 4 3
17 4 3
18 4 3
19 4 3
20 4 3
21 4 3
22 4 3
23 4 3
24 4 3
25 4 3
1 5 3
2 5 3
3 5 3
4 5 3
5 5 3
6 5 3
7 5 3
8 5 3
9 5 3
10 5 3
11 5 3
12 5 3
13 5 3
14 5 3
15 5 3
[...]
POINT_DATA 15625 
SCALARS density float 1 
LOOKUP_TABLE default 
1.000462
1.000787
1.000948
1.001004
1.000994
1.000939
1.000852
1.000741
1.000611
1.000468
1.000315
1.000157
0.999998
0.999842
0.999694
0.999556
0.999431
0.999322
0.999232
0.999165
0.999127
0.999129
0.999193
0.999352
0.999667
1.000831
1.001063
1.001189
1.001225
1.001197
1.001123
1.001016
1.000881
1.000726
1.000556
1.000373
1.000184
0.999994
0.999808
0.999629
0.999463
0.999313
0.999181
0.999070
0.998985
0.998930
0.998917
0.998961
0.999088
0.999313
1.001085
1.001281
1.001375
1.001388
1.001340
1.001249
1.001124
1.000973
1.000801
1.000612
1.000410
1.000202
0.999992
0.999785
0.999588
0.999404
0.999237
0.999089
0.998963
0.998863
0.998793
0.998762
0.998785
0.998881
0.999071
1.001268
1.001444
1.001515
1.001507
1.001442
1.001336
1.001198
1.001034
1.000849
1.000648
1.000434
1.000213
0.999990
0.999771
0.999562
0.999366
0.999188
0.999029
0.998892
0.998780
0.998695
0.998648
0.998652
0.998727
0.998897
1.001406
1.001569
1.001624
1.001599
1.001519
1.001400
1.001251
1.001077
1.000883
1.000673
1.000450
1.000220
0.999989
0.999762
0.999544
0.999341
0.999154
0.998988
0.998842
0.998719
0.998624
0.998563
0.998551
0.998610
0.998768
1.001512
1.001666
1.001709
1.001672
1.001581
1.001451
1.001293
1.001111
1.000910
1.000692
1.000463
1.000226
0.999988
0.999755
0.999531
0.999321
0.999129
0.998955
0.998803
0.998672
0.998567
0.998496
0.998472
0.998520
0.998670
1.001596
1.001744
1.001778
1.001732
1.001632
1.001494
1.001328
1.001140
1.000932
1.000709
1.000474
1.000231
0.999988
0.999749
0.999519
0.999304
0.999107
0.998928
0.998770
0.998633
0.998521
0.998441
0.998410
0.998450
0.998594
1.001661
1.001805
1.001834
1.001782
1.001675
1.001531
1.001359
1.001165
1.000952
1.000724
1.000483
1.000236
0.999987
0.999743
0.999509
0.999290
0.999088
0.998905
0.998742
0.998600
0.998482
0.998397
0.998359
0.998395
0.998535
1.001711
1.001853
1.001879
1.001822
1.001711
1.001562
1.001386
1.001187
1.000970
1.000737
1.000492
1.000240
0.999987
0.999739
0.999501
0.999277
0.999072
0.998885
0.998718
0.998572
0.998450
0.998361
0.998320
0.998352
0.998490
1.001749
1.001889
1.001913
1.001853
1.001739
1.001587
1.001407
1.001205
1.000984
1.000747
1.000499
1.000243
0.999987
0.999735
0.999494
0.999267
0.999058
0.998868
0.998699
0.998550
0.998425
0.998334
0.998290
0.998320
0.998457
1.001775
1.001914
1.001936
1.001875
1.001759
1.001605
1.001423
1.001218
1.000994
1.000755
1.000504
1.000246
0.999987
0.999732
0.999489
0.999259
0.999048
0.998856
0.998684
0.998534
0.998407
0.998314
0.998269
0.998298
0.998434
1.001790
1.001929
1.001951
1.001889
1.001771
1.001616
1.001432
1.001226
1.001001
1.000760
1.000507
1.000247
0.999987
0.999731
0.999485
0.999255
0.999042
0.998849
0.998676
0.998524
0.998397
0.998302
0.998256
0.998285
0.998421
1.001795
1.001934
1.001955
1.001893
1.001775
1.001619
1.001435
1.001229
1.001003
1.000761
1.000508
1.000248
0.999986
0.999730
0.999484
0.999253
0.999040
0.998846
0.998673
0.998521
0.998393
0.998298
0.998252
0.998281
0.998416
1.001790
1.001929
1.001951
1.001889
1.001771
1.001616
1.001432
1.001226
1.001001
1.000760
1.000507
1.000247
0.999987
0.999731
0.999485
0.999255
0.999042
0.998849
0.998676
0.998524
0.998397
0.998302
0.998256
0.998285
0.998421
1.001775
1.001914
1.001936
1.001875
1.001759
1.001605
1.001423
1.001218
1.000994
1.000755
1.000504
1.000246
0.999987
0.999732
0.999489
0.999259
0.999048
0.998856
0.998684
0.998534
0.998407
0.998314
0.998269
0.998298
0.998434
1.001749
1.001889
1.001913
1.001853
1.001739
1.001587
1.001407
1.001205
1.000984
1.000747
1.000499
1.000243
0.999987
0.999735
0.999494
0.999267
0.999058
0.998868
0.998699
0.998550
0.998425
0.998334
0.998290
0.998320
0.998457
1.001711
1.001853
1.001879
1.001822
1.001711
1.001562
1.001386
1.001187
1.000970
1.000737
1.000492
1.000240
0.999987
0.999739
0.999501
0.999277
0.999072
0.998885
0.998718
0.998572
0.998450
0.998361
0.998320
0.998352
0.998490
1.001661
1.001805
1.001834
1.001782
1.001675
1.001531
1.001359
1.001165
1.000952
1.000724
1.000483
1.000236
0.999987
0.999743
0.999509
0.999290
0.999088
0.998905
0.998742
0.998600
0.998482
0.998397
0.998359
0.998395
0.998535
1.001596
1.001744
1.001778
1.001732
1.001632
1.001494
1.001328
1.001140
1.000932
1.000709
1.000474
1.000231
0.999988
0.999749
0.999519
0.999304
0.999107
0.998928
0.998770
0.998633
0.998521
0.998441
0.998410
0.998450
0.998594
1.001512
1.001666
1.001709
1.001672
1.001581
1.001451
1.001293
1.001111
1.000910
1.000692
1.000463
1.000226
0.999988
0.999755
0.999531
0.999321
0.999129
0.998955
0.998803
0.998672
0.998567
0.998496
0.998472
0.998520
0.998670
1.001406
1.001569
1.001624
1.001599
1.001519
1.001400
1.001251
1.001077
1.000883
1.000673
1.000450
1.000220
0.999989
0.999762
0.999544
0.999341
0.999154
0.998988
0.998842
0.998719
0.998624
0.998563
0.998551
0.998610
0.998768
1.001268
1.001444
1.001515
1.001507
1.001442
1.001336
1.001198
1.001034
1.000849
1.000648
1.000434
1.000213
0.999990
0.999771
0.999562
0.999366
0.999188
0.999029
0.998892
0.998780
0.998695
0.998648
0.998652
0.998727
0.998897
1.001085
1.001281
1.001375
1.001388
1.001340
1.001249
1.001124
1.000973
1.000801
1.000612
1.000410
1.000202
0.999992
0.999785
0.999588
0.999404
0.999237
0.999089
0.998963
0.998863
0.998793
0.998762
0.998785
0.998881
0.999071
1.000831
1.001063
1.001189
1.001225
1.001197
1.001123
1.001016
1.000881
1.000726
1.000556
1.000373
1.000184
0.999994
0.999808
0.999629
0.999463
0.999313
0.999181
0.999070
0.998985
0.998930
0.998917
0.998961
0.999088
0.999313
1.000462
1.000787
1.000948
1.001004
1.000994
1.000939
1.000852
1.000741
1.000611
1.000468
1.000315
1.000157
0.999998
0.999842
0.999694
0.999556
0.999431
0.999322
0.999232
0.999165
0.999127
0.999129
0.999193
0.999352
0.999667
1.000810
1.001041
1.001166
1.001203
1.001178
1.001107
1.001003
1.000872
1.000720
1.000551
1.000371
1.000184
0.999995
0.999810
0.999633
0.999469
0.999321
0.999191
0.999083
0.999001
0.998950
0.998939
0.998984
0.999110
0.999334
1.001087
1.001214
1.001297
1.001317
1.001282
1.001202
1.001087
1.000945
1.000779
1.000596
1.000401
1.000198
0.999993
0.999792
0.999600
0.999421
0.999259
0.999118
0.998999
0.998908
0.998849
0.998829
0.998859
0.998944
0.999068
1.001312
1.001391
1.001437
1.001434
1.001383
1.001291
1.001164
1.001009
1.000832
1.000636
1.000427
1.000210
0.999991
0.999777
0.999571
0.999379
0.999206
0.999053
0.998924
0.998822
0.998751
0.998717
0.998725
0.998776
0.998854
1.001484
1.001541
1.001563
1.001539
1.001472
1.001366
1.001228
1.001062
1.000874
1.000667
1.000447
1.000220
0.999990
0.999764
0.999548
0.999347
0.999163
0.999000
0.998862
0.998749
0.998666
0.998617
0.998606
0.998634
0.998690
1.001618
1.001663
1.001669
1.001629
1.001547
1.001430
1.001281
1.001106
1.000908
1.000693
1.000464
1.000227
0.999989
0.999755
0.999531
0.999321
0.999129
0.998959
0.998811
0.998689
0.998595
0.998533
0.998507
0.998519
0.998565
1.001723
1.001761
1.001756
1.001705
1.001611
1.001483
1.001325
1.001142
1.000936
1.000713
1.000477
1.000234
0.999989
0.999748
0.999516
0.999300
0.999102
0.998924
0.998769
0.998639
0.998536
0.998463
0.998426
0.998429
0.998468
1.001805
1.001839
1.001827
1.001767
1.001665
1.001529
1.001363
1.001173
1.000961
1.000731
1.000489
1.000239
0.999988
0.999741
0.999505
0.999282
0.999078
0.998895
0.998734
0.998597
0.998487
0.998406
0.998361
0.998357
0.998393
1.001870
1.001901
1.001885
1.001819
1.001710
1.001567
1.001395
1.001199
1.000981
1.000747
1.000499
1.000244
0.999988
0.999736
0.999495
0.999267
0.999059
0.998870
0.998705
0.998562
0.998446
0.998359
0.998309
0.998301
0.998334
1.001919
1.001949
1.001930
1.001860
1.001747
1.001599
1.001422
1.001221
1.000999
1.000760
1.000508
1.000249
0.999988
0.999732
0.999486
0.999255
0.999042
0.998850
0.998680
0.998533
0.998413
0.998322
0.998268
0.998258
0.998289
1.001956
1.001986
1.001964
1.001891
1.001775
1.001624
1.001444
1.001239
1.001013
1.000770
1.000515
1.000252
0.999988
0.999728
0.999479
0.999245
0.999029
0.998834
0.998660
0.998511
0.998387
0.998294
0.998238
0.998226
0.998256
1.001982
1.002011
1.001988
1.001914
1.001795
1.001642
1.001459
1.001252
1.001023
1.000778
1.000520
1.000254
0.999988
0.999726
0.999474
0.999238
0.999019
0.998822
0.998646
0.998495
0.998369
0.998274
0.998216
0.998203
0.998234
1.001997
1.002026
1.002003
1.001927
1.001808
1.001653
1.001468
1.001259
1.001029
1.000782
1.000523
1.000256
0.999988
0.999724
0.999471
0.999233
0.999013
0.998814
0.998638
0.998485
0.998358
0.998262
0.998204
0.998190
0.998220
1.002002
1.002031
1.002007
1.001932
1.001812
1.001656
1.001472
1.001262
1.001031
1.000784
1.000524
1.000256
0.999988
0.999724
0.999470
0.999231
0.999011
0.998812
0.998635
0.998481
0.998354
0.998258
0.998199
0.998186
0.998216
1.001997
1.002026
1.002003
1.001927
1.001808
1.001653
1.001468
1.001259
1.001029
1.000782
1.000523
1.000256
0.999988
0.999724
0.999471
0.999233
0.999013
0.998814
0.998638
0.998485
0.998358
0.998262
0.998204
0.998190
0.998220
1.001982
1.002011
1.001988
1.001914
1.001795
1.001642
1.001459
1.001252
1.001023
1.000778
1.000520
1.000254
0.999988
0.999726
0.999474
0.999238
0.999019
0.998822
0.998646
0.998495
0.998369
0.998274
0.998216
0.998203
0.998234
1.001956
1.001986
1.001964
1.001891
1.001775
1.001624
1.001444
1.001239
1.001013
1.000770
1.000515
1.000252
0.999988
0.999728
0.999479
0.999245
0.999029
0.998834
0.998660
0.998511
0.998387
0.998294
0.998238
0.998226
0.998256
1.001919
1.001949
1.001930
1.001860
1.001747
1.001599
1.001422
1.001221
1.000999
1.000760
1.000508
1.000249
0.999988
0.999732
0.999486
0.999255
0.999042
0.998850
0.998680
0.998533
0.998413
0.998322
0.998268
0.998258
0.998289
1.001870
1.001901
1.001885
1.001819
1.001710
1.001567
1.001395
1.001199
1.000981
1.000747
1.000499
1.000244
0.999988
0.999736
0.999495
0.999267
0.999059
0.998870
0.998705
0.998562
0.998446
0.998359
0.998309
0.998301
0.998334
1.001805
1.001839
1.001827
1.001767
1.001665
1.001529
1.001363
1.001173
1.000961
1.000731
1.000489
1.000239
0.999988
0.999741
0.999505
0.999282
0.999078
0.998895
0.998734
0.998597
0.998487
0.998406
0.998361
0.998357
0.998393
1.001723
1.001761
1.001756
1.001705
1.001611
1.001483
1.001325
1.001142
1.000936
1.000713
1.000477
1.000234
0.999989
0.999748
0.999516
0.999300
0.999102
0.998924
0.998769
0.998639
0.998536
0.998463
0.998426
0.998429
0.998468
1.001618
1.001663
1.001669
1.001629
1.001547
1.001430
1.001281
1.001106
1.000908
1.000693
1.000464
1.000227
0.999989
0.999755
0.999531
0.999321
0.999129
0.998959
0.998811
0.998689
0.998595
0.998533
0.998507
0.998519
0.998565
1.001484
1.001541
1.001563
1.001539
1.001472
1.001366
1.001228
1.001062
1.000874
1.000667
1.000447
1.000220
0.999990
0.999764
0.999548
0.999347
0.999163
0.999000
0.998862
0.998749
0.998666
0.998617
0.998606
0.998634
0.998690
1.001312
1.001391
1.001437
1.001434
1.001383
1.001291
1.001164
1.001009
1.000832
1.000636
1.000427
1.000210
0.999991
0.999777
0.999571
0.999379
0.999206
0.999053
0.998924
0.998822
0.998751
0.998717
0.998725
0.998776
0.998854
1.001087
1.001214
1.001297
1.001317
1.001282
1.001202
1.001087
1.000945
1.000779
1.000596
1.000401
1.000198
0.999993
0.999792
0.999600
0.999421
0.999259
0.999118
0.998999
0.998908
0.998849
0.998829
0.998859
0.998944
0.999068
1.000810
1.001041
1.001166
1.001203
1.001178
1.001107
1.001003
1.000872
1.000720
1.000551
1.000371
1.000184
0.999995
0.999810
0.999633
0.999469
0.999321
0.999191
0.999083
0.999001
0.998950
0.998939
0.998984
0.999110
0.999334
1.001024
1.001216
1.001308
1.001324
1.001284
1.001202
1.001087
1.000944
1.000779
1.000596
1.000400
1.000197
0.999992
0.999791
0.999599
0.999421
0.999260
0.999119
0.999002
0.998910
0.998849
0.998825
0.998852
0.998946
0.999133
1.001270
1.001348
1.001394
1.001393
1.001346
1.001258
1.001137
1.000988
1.000815
1.000623
1.000418
1.000206
0.999991
0.999780
0.999579
0.999392
0.999222
0.999075
0.998951
0.998854
0.998788
0.998758
0.998768
0.998820
0.998896
1.001474
1.001496
1.001506
1.001482
1.001420
1.001322
1.001192
1.001033
1.000851
1.000651
1.000436
1.000214
0.999990
0.999770
0.999559
0.999362
0.999184
0.999028
0.998896
0.998791
0.998716
0.998672
0.998662
0.998678
0.998701
1.001639
1.001633
1.001617
1.001573
1.001496
1.001385
1.001245
1.001077
1.000886
1.000676
1.000453
1.000222
0.999989
0.999760
0.999541
0.999336
0.999150
0.998985
0.998845
0.998731
0.998644
0.998586
0.998557
0.998549
0.998545
1.001769
1.001749
1.001717
1.001657
1.001566
1.001444
1.001293
1.001116
1.000917
1.000699
1.000468
1.000229
0.999989
0.999752
0.999526
0.999313
0.999120
0.998948
0.998799
0.998676
0.998578
0.998508
0.998463
0.998439
0.998422
1.001873
1.001846
1.001802
1.001731
1.001628
1.001496
1.001336
1.001151
1.000944
1.000719
1.000481
1.000236
0.999989
0.999746
0.999513
0.999294
0.999094
0.998915
0.998759
0.998627
0.998520
0.998439
0.998383
0.998349
0.998326
1.001956
1.001924
1.001873
1.001793
1.001682
1.001542
1.001374
1.001181
1.000968
1.000737
1.000493
1.000241
0.999989
0.999740
0.999501
0.999277
0.999071
0.998886
0.998724
0.998585
0.998471
0.998382
0.998318
0.998277
0.998250
1.002021
1.001987
1.001931
1.001845
1.001728
1.001580
1.001406
1.001208
1.000988
1.000752
1.000503
1.000246
0.999989
0.999735
0.999492
0.999263
0.999052
0.998862
0.998694
0.998549
0.998429
0.998334
0.998265
0.998220
0.998191
1.002071
1.002036
1.001977
1.001887
1.001764
1.001612
1.001433
1.001230
1.001005
1.000764
1.000511
1.000251
0.999989
0.999732
0.999484
0.999251
0.999036
0.998842
0.998669
0.998520
0.998395
0.998296
0.998223
0.998176
0.998145
1.002109
1.002073
1.002012
1.001919
1.001793
1.001637
1.001454
1.001247
1.001019
1.000775
1.000518
1.000254
0.999989
0.999728
0.999478
0.999242
0.999023
0.998826
0.998650
0.998498
0.998370
0.998267
0.998192
0.998143
0.998111
1.002135
1.002098
1.002037
1.001942
1.001814
1.001655
1.001469
1.001259
1.001029
1.000782
1.000523
1.000257
0.999989
0.999726
0.999473
0.999235
0.999014
0.998814
0.998636
0.998481
0.998351
0.998247
0.998170
0.998120
0.998088
1.002150
1.002114
1.002051
1.001955
1.001826
1.001666
1.001478
1.001267
1.001035
1.000786
1.000526
1.000258
0.999989
0.999725
0.999470
0.999230
0.999008
0.998807
0.998628
0.998472
0.998340
0.998235
0.998157
0.998106
0.998075
1.002155
1.002119
1.002056
1.001960
1.001830
1.001669
1.001482
1.001270
1.001037
1.000788
1.000527
1.000259
0.999989
0.999724
0.999469
0.999229
0.999007
0.998805
0.998625
0.998468
0.998336
0.998230
0.998152
0.998102
0.998070
1.002150
1.002114
1.002051
1.001955
1.001826
1.001666
1.001478
1.001267
1.001035
1.000786
1.000526
1.000258
0.999989
0.999725
0.999470
0.999230
0.999008
0.998807
0.998628
0.998472
0.998340
0.998235
0.998157
0.998106
0.998075
1.002135
1.002098
1.002037
1.001942
1.001814
1.001655
1.001469
1.001259
1.001029
1.000782
1.000523
1.000257
0.999989
0.999726
0.999473
0.999235
0.999014
0.998814
0.998636
0.998481
0.998351
0.998247
0.998170
0.998120
0.998088
1.002109
1.002073
1.002012
1.001919
1.001793
1.001637
1.001454
1.001247
1.001019
1.000775
1.000518
1.000254
0.999989
0.999728
0.999478
0.999242
0.999023
0.998826
0.998650
0.998498
0.998370
0.998267
0.998192
0.998143
0.998111
1.002071
1.002036
1.001977
1.001887
1.001764
1.001612
1.001433
1.001230
1.001005
1.000764
1.000511
1.000251
0.999989
0.999732
0.999484
0.999251
0.999036
0.998842
0.998669
0.998520
0.998395
0.998296
0.998223
0.998176
0.998145
1.002021
1.001987
1.001931
1.001845
1.001728
1.001580
1.001406
1.001208
1.000988
1.000752
1.000503
1.000246
0.999989
0.999735
0.999492
0.999263
0.999052
0.998862
0.998694
0.998549
0.998429
0.998334
0.998265
0.998220
0.998191
1.001956
1.001924
1.001873
1.001793
1.001682
1.001542
1.001374
1.001181
1.000968
1.000737
1.000493
1.000241
0.999989
0.999740
0.999501
0.999277
0.999071
0.998886
0.998724
0.998585
0.998471
0.998382
0.998318
0.998277
0.998250
1.001873
1.001846
1.001802
1.001731
1.001628
1.001496
1.001336
1.001151
1.000944
1.000719
1.000481
1.000236
0.999989
0.999746
0.999513
0.999294
0.999094
0.998915
0.998759
0.998627
0.998520
0.998439
0.998383
0.998349
0.998326
1.001769
1.001749
1.001717
1.001657
1.001566
1.001444
1.001293
1.001116
1.000917
1.000699
1.000468
1.000229
0.999989
0.999752
0.999526
0.999313
0.999120
0.998948
0.998799
0.998676
0.998578
0.998508
0.998463
0.998439
0.998422
1.001639
1.001633
1.001617
1.001573
1.001496
1.001385
1.001245
1.001077
1.000886
1.000676
1.000453
1.000222
0.999989
0.999760
0.999541
0.999336
0.999150
0.998985
0.998845
0.998731
0.998644
0.998586
0.998557
0.998549
0.998545
1.001474
1.001496
1.001506
1.001482
1.001420
1.001322
1.001192
1.001033
1.000851
1.000651
1.000436
1.000214
0.999990
0.999770
0.999559
0.999362
0.999184
0.999028
0.998896
0.998791
0.998716
0.998672
0.998662
0.998678
0.998701
1.001270
1.001348
1.001394
1.001393
1.001346
1.001258
1.001137
1.000988
1.000815
1.000623
1.000418
1.000206
0.999991
0.999780
0.999579
0.999392
0.999222
0.999075
0.998951
0.998854
0.998788
0.998758
0.998768
0.998820
0.998896
1.001024
1.001216
1.001308
1.001324
1.001284
1.001202
1.001087
1.000944
1.000779
1.000596
1.000400
1.000197
0.999992
0.999791
0.999599
0.999421
0.999260
0.999119
0.999002
0.998910
0.998849
0.998825
0.998852
0.998946
0.999133
1.001152
1.001319
1.001388
1.001387
1.001335
1.001245
1.001123
1.000974
1.000803
1.000614
1.000411
1.000201
0.999989
0.999781
0.999583
0.999399
0.999233
0.999089
0.998967
0.998872
0.998804
0.998770
0.998781
0.998854
0.999016
1.001382
1.001435
1.001457
1.001438
1.001380
1.001285
1.001159
1.001005
1.000828
1.000633
1.000424
1.000207
0.999988
0.999774
0.999569
0.999378
0.999207
0.999056
0.998930
0.998830
0.998759
0.998719
0.998713
0.998742
0.998795
1.001575
1.001568
1.001552
1.001511
1.001439
1.001334
1.001200
1.001039
1.000855
1.000653
1.000437
1.000213
0.999988
0.999766
0.999554
0.999357
0.999179
0.999022
0.998889
0.998781
0.998701
0.998648
0.998621
0.998615
0.998610
1.001734
1.001694
1.001652
1.001591
1.001504
1.001387
1.001244
1.001074
1.000883
1.000673
1.000450
1.000220
0.999988
0.999759
0.999541
0.999337
0.999151
0.998987
0.998847
0.998730
0.998639
0.998572
0.998527
0.998494
0.998459
1.001863
1.001806
1.001746
1.001669
1.001567
1.001440
1.001286
1.001109
1.000909
1.000693
1.000463
1.000226
0.999988
0.999753
0.999529
0.999318
0.999126
0.998955
0.998806
0.998681
0.998579
0.998500
0.998438
0.998389
0.998338
1.001966
1.001901
1.001829
1.001740
1.001627
1.001489
1.001326
1.001141
1.000934
1.000711
1.000475
1.000232
0.999988
0.999748
0.999518
0.999302
0.999103
0.998925
0.998769
0.998635
0.998524
0.998434
0.998361
0.998301
0.998241
1.002050
1.001979
1.001900
1.001801
1.001679
1.001533
1.001363
1.001170
1.000957
1.000727
1.000486
1.000238
0.999989
0.999744
0.999508
0.999287
0.999083
0.998898
0.998736
0.998595
0.998476
0.998377
0.998296
0.998228
0.998164
1.002116
1.002043
1.001958
1.001853
1.001724
1.001571
1.001394
1.001195
1.000976
1.000742
1.000496
1.000243
0.999989
0.999740
0.999500
0.999274
0.999065
0.998875
0.998707
0.998560
0.998435
0.998329
0.998243
0.998170
0.998103
1.002167
1.002092
1.002004
1.001895
1.001761
1.001603
1.001420
1.001216
1.000993
1.000754
1.000504
1.000247
0.999990
0.999737
0.999493
0.999263
0.999050
0.998856
0.998683
0.998532
0.998401
0.998291
0.998200
0.998125
0.998057
1.002205
1.002130
1.002040
1.001927
1.001790
1.001627
1.001441
1.001233
1.001006
1.000764
1.000510
1.000251
0.999990
0.999734
0.999488
0.999254
0.999038
0.998841
0.998664
0.998509
0.998375
0.998262
0.998168
0.998091
0.998022
1.002232
1.002156
1.002065
1.001950
1.001810
1.001645
1.001456
1.001245
1.001015
1.000771
1.000515
1.000253
0.999991
0.999732
0.999484
0.999248
0.999029
0.998830
0.998651
0.998493
0.998356
0.998241
0.998145
0.998067
0.997998
1.002247
1.002172
1.002080
1.001964
1.001823
1.001656
1.001465
1.001252
1.001021
1.000775
1.000518
1.000255
0.999991
0.999731
0.999481
0.999244
0.999024
0.998823
0.998643
0.998483
0.998345
0.998228
0.998132
0.998053
0.997984
1.002253
1.002177
1.002085
1.001969
1.001827
1.001659
1.001468
1.001255
1.001023
1.000776
1.000519
1.000255
0.999991
0.999731
0.999480
0.999243
0.999022
0.998821
0.998640
0.998480
0.998342
0.998224
0.998127
0.998048
0.997979
1.002247
1.002172
1.002080
1.001964
1.001823
1.001656
1.001465
1.001252
1.001021
1.000775
1.000518
1.000255
0.999991
0.999731
0.999481