# vtk DataFile Version 2.0
generated by CFD-lab course output 
ASCII

DATASET STRUCTURED_GRID
DIMENSIONS  25 25 25 
POINTS 15625 float

1 1 1
2 1 1
3 1 1
4 1 1
5 1 1
6 1 1
7 1 1
8 1 1
9 1 1
10 1 1
11 1 1
12 1 1
13 1 1
14 1 1
15 1 1
16 1 1
17 1 1
18 1 1
19 1 1
20 1 1
21 1 1
22 1 1
23 1 1
24 1 1
25 1 1
1 2 1
2 2 1
3 2 1
4 2 1
5 2 1
6 2 1
7 2 1
8 2 1
9 2 1
10 2 1
11 2 1
12 2 1
13 2 1
14 2 1
15 2 1
16 2 1
17 2 1
18 2 1
19 2 1
20 2 1
21 2 1
22 2 1
23 2 1
24 2 1
25 2 1
1 3 1
2 3 1
3 3 1
4 3 1
5 3 1
6 3 1
7 3 1
8 3 1
9 3 1
10 3 1
11 3 1
12 3 1
13 3 1
14 3 1
15 3 1
16 3 1
17 3 1
18 3 1
19 3 1
20 3 1
21 3 1
22 3 1
23 3 1
24 3 1
25 3 1
1 4 1
2 4 1
3 4 1
4 4 1
5 4 1
6 4 1
7 4 1
8 4 1
9 4 1
10 4 1
11 4 1
12 4 1
13 4 1
14 4 1
15 4 1
16 4 1
17 4 1
18 4 1
19 4 1
20 4 1
21 4 1
22 4 1
23 4 1
24 4 1
25 4 1
1 5 1
2 5 1
3 5 1
4 5 1
5 5 1
6 5 1
7 5 1
8 5 1
9 5 1
10 5 1
11 5 1
12 5 1
13 5 1
14 5 1
15 5 1
16 5 1
17 5 1
18 5 1
19 5 1
20 5 1
21 5 1
22 5 1
23 5 1
24 5 1
25 5 1
1 6 1
2 6 1
3 6 1
4 6 1
5 6 1
6 6 1
7 6 1
8 6 1
9 6 1
10 6 1
11 6 1
12 6 1
13 6 1
14 6 1
15 6 1
16 6 1
17 6 1
18 6 1
19 6 1
20 6 1
21 6 1
22 6 1
23 6 1
24 6 1
25 6 1
1 7 1
2 7 1
3 7 1
4 7 1
5 7 1
6 7 1
7 7 1
8 7 1
9 7 1
10 7 1
11 7 1
12 7 1
13 7 1
14 7 1
15 7 1
16 7 1
17 7 1
18 7 1
19 7 1
20 7 1
21 7 1
22 7 1
23 7 1
24 7 1
25 7 1
1 8 1
2 8 1
3 8 1
4 8 1
5 8 1
6 8 1
7 8 1
8 8 1
9 8 1
10 8 1
11 8 1
12 8 1
13 8 1
14 8 1
15 8 1
16 8 1
17 8 1
18 8 1
19 8 1
20 8 1
21 8 1
22 8 1
23 8 1
24 8 1
25 8 1
1 9 1
2 9 1
3 9 1
4 9 1
5 9 1
6 9 1
7 9 1
8 9 1
9 9 1
10 9 1
11 9 1
12 9 1
13 9 1
14 9 1
15 9 1
16 9 1
17 9 1
18 9 1
19 9 1
20 9 1
21 9 1
22 9 1
23 9 1
24 9 1
25 9 1
1 10 1
2 10 1
3 10 1
4 10 1
5 10 1
6 10 1
7 10 1
8 10 1
9 10 1
10 10 1
11 10 1
12 10 1
13 10 1
14 10 1
15 10 1
16 10 1
17 10 1
18 10 1
19 10 1
20 10 1
21 10 1
22 10 1
23 10 1
24 10 1
25 10 1
1 11 1
2 11 1
3 11 1
4 11 1
5 11 1
6 11 1
7 11 1
8 11 1
9 11 1
10 11 1
11 11 1
12 11 1
13 11 1
14 11 1
15 11 1
16 11 1
17 11 1
18 11 1
19 11 1
20 11 1
21 11 1
22 11 1
23 11 1
24 11 1
25 11 1
1 12 1
2 12 1
3 12 1
4 12 1
5 12 1
6 12 1
7 12 1
8 12 1
9 12 1
10 12 1
11 12 1
12 12 1
13 12 1
14 12 1
15 12 1
16 12 1
17 12 1
18 12 1
19 12 1
20 12 1
21 12 1
22 12 1
23 12 1
24 12 1
25 12 1
1 13 1
2 13 1
3 13 1
4 13 1
5 13 1
6 13 1
7 13 1
8 13 1
9 13 1
10 13 1
11 13 1
12 13 1
13 13 1
14 13 1
15 13 1
16 13 1
17 13 1
18 13 1
19 13 1
20 13 1
21 13 1
22 13 1
23 13 1
24 13 1
25 13 1
1 14 1
2 14 1
3 14 1
4 14 1
5 14 1
6 14 1
7 14 1
8 14 1
9 14 1
10 14 1
11 14 1
12 14 1
13 14 1
14 14 1
15 14 1
16 14 1
17 14 1
18 14 1
19 14 1
20 14 1
21 14 1
22 14 1
23 14 1
24 14 1
25 14 1
1 15 1
2 15 1
3 15 1
4 15 1
5 15 1
6 15 1
7 15 1
8 15 1
9 15 1
10 15 1
11 15 1
12 15 1
13 15 1
14 15 1
15 15 1
16 15 1
17 15 1
18 15 1
19 15 1
20 15 1
21 15 1
22 15 1
23 15 1
24 15 1
25 15 1
1 16 1
2 16 1
3 16 1
4 16 1
5 16 1
6 16 1
7 16 1
8 16 1
9 16 1
10 16 1
11 16 1
12 16 1
13 16 1
14 16 1
15 16 1
16 16 1
17 16 1
18 16 1
19 16 1
20 16 1
21 16 1
22 16 1
23 16 1
24 16 1
25 16 1
1 17 1
2 17 1
3 17 1
4 17 1
5 17 1
6 17 1
7 17 1
8 17 1
9 17 1
10 17 1
11 17 1
12 17 1
13 17 1
14 17 1
15 17 1
16 17 1
17 17 1
18 17 1
19 17 1
20 17 1
21 17 1
22 17 1
23 17 1
24 17 1
25 17 1
1 18 1
2 18 1
3 18 1
4 18 1
5 18 1
6 18 1
7 18 1
8 18 1
9 18 1
10 18 1
11 18 1
12 18 1
13 18 1
14 18 1
15 18 1
16 18 1
17 18 1
18 18 1
19 18 1
20 18 1
21 18 1
22 18 1
23 18 1
24 18 1
25 18 1
1 19 1
2 19 1
3 19 1
4 19 1
5 19 1
6 19 1
7 19 1
8 19 1
9 19 1
10 19 1
11 19 1
12 19 1
13 19 1
14 19 1
15 19 1
16 19 1
17 19 1
18 19 1
19 19 1
20 19 1
21 19 1
22 19 1
23 19 1
24 19 1
25 19 1
1 20 1
2 20 1
3 20 1
4 20 1
5 20 1
6 20 1
7 20 1
8 20 1
9 20 1
10 20 1
11 20 1
12 20 1
13 20 1
14 20 1
15 20 1
16 20 1
17 20 1
18 20 1
19 20 1
20 20 1
21 20 1
22 20 1
23 20 1
24 20 1
25 20 1
1 21 1
2 21 1
3 21 1
4 21 1
5 21 1
6 21 1
7 21 1
8 21 1
9 21 1
10 21 1
11 21 1
12 21 1
13 21 1
14 21 1
15 21 1
16 21 1
17 21 1
18 21 1
19 21 1
20 21 1
21 21 1
22 21 1
23 21 1
24 21 1
25 21 1
1 22 1
2 22 1
3 22 1
4 22 1
5 22 1
6 22 1
7 22 1
8 22 1
9 22 1
10 22 1
11 22 1
12 22 1
13 22 1
14 22 1
15 22 1
16 22 1
17 22 1
18 22 1
19 22 1
20 22 1
21 22 1
22 22 1
23 22 1
24 22 1
25 22 1
1 23 1
2 23 1
3 23 1
4 23 1
5 23 1
6 23 1
7 23 1
8 23 1
9 23 1
10 23 1
11 23 1
12 23 1
13 23 1
14 23 1
15 23 1
16 23 1
17 23 1
18 23 1
19 23 1
20 23 1
21 23 1
22 23 1
23 23 1
24 23 1
25 23 1
1 24 1
2 24 1
3 24 1
4 24 1
5 24 1
6 24 1
7 24 1
8 24 1
9 24 1
10 24 1
11 24 1
12 24 1
13 24 1
14 24 1
15 24 1
16 24 1
17 24 1
18 24 1
19 24 1
20 24 1
21 24 1
22 24 1
23 24 1
24 24 1
25 24 1
1 25 1
2 25 1
3 25 1
4 25 1
5 25 1
6 25 1
7 25 1
8 25 1
9 25 1
10 25 1
11 25 1
12 25 1
13 25 1
14 25 1
15 25 1
16 25 1
17 25 1
18 25 1
19 25 1
20 25 1
21 25 1
22 25 1
23 25 1
24 25 1
25 25 1
1 1 2
2 1 2
3 1 2
4 1 2
5 1 2
6 1 2
7 1 2
8 1 2
9 1 2
10 1 2
11 1 2
12 1 2
13 1 2
14 1 2
15 1 2
16 1 2
17 1 2
18 1 2
19 1 2
20 1 2
21 1 2
22 1 2
23 1 2
24 1 2
25 1 2
1 2 2
2 2 2
3 2 2
4 2 2
5 2 2
6 2 2
7 2 2
8 2 2
9 2 2
10 2 2
11 2 2
12 2 2
13 2 2
14 2 2
15 2 2
16 2 2
17 2 2
18 2 2
19 2 2
20 2 2
21 2 2
22 2 2
23 2 2
24 2 2
25 2 2
1 3 2
2 3 2
3 3 2
4 3 2
5 3 2
6 3 2
7 3 2
8 3 2
9 3 2
10 3 2
11 3 2
12 3 2
13 3 2
14 3 2
15 3 2
16 3 2
17 3 2
18 3 2
19 3 2
20 3 2
21 3 2
22 3 2
23 3 2
24 3 2
25 3 2
1 4 2
2 4 2
3 4 2
4 4 2
5 4 2
6 4 2
7 4 2
8 4 2
9 4 2
10 4 2
11 4 2
12 4 2
13 4 2
14 4 2
15 4 2
16 4 2
17 4 2
18 4 2
19 4 2
20 4 2
21 4 2
22 4 2
23 4 2
24 4 2
25 4 2
1 5 2
2 5 2
3 5 2
4 5 2
5 5 2
6 5 2
7 5 2
8 5 2
9 5 2
10 5 2
11 5 2
12 5 2
13 5 2
14 5 2
15 5 2
16 5 2
17 5 2
18 5 2
19 5 2
20 5 2
21 5 2
22 5 2
23 5 2
24 5 2
25 5 2
1 6 2
2 6 2
3 6 2
4 6 2
5 6 2
6 6 2
7 6 2
8 6 2
9 6 2
10 6 2
11 6 2
12 6 2
13 6 2
14 6 2
15 6 2
16 6 2
17 6 2
18 6 2
19 6 2
20 6 2
21 6 2
22 6 2
23 6 2
24 6 2
25 6 2
1 7 2
2 7 2
3 7 2
4 7 2
5 7 2
6 7 2
7 7 2
8 7 2
9 7 2
10 7 2
11 7 2
12 7 2
13 7 2
14 7 2
15 7 2
16 7 2
17 7 2
18 7 2
19 7 2
20 7 2
21 7 2
22 7 2
23 7 2
24 7 2
25 7 2
1 8 2
2 8 2
3 8 2
4 8 2
5 8 2
6 8 2
7 8 2
8 8 2
9 8 2
10 8 2
11 8 2
12 8 2
13 8 2
14 8 2
15 8 2
16 8 2
17 8 2
18 8 2
19 8 2
20 8 2
21 8 2
22 8 2
23 8 2
24 8 2
25 8 2
1 9 2
2 9 2
3 9 2
4 9 2
5 9 2
6 9 2
7 9 2
8 9 2
9 9 2
10 9 2
11 9 2
12 9 2
13 9 2
14 9 2
15 9 2
16 9 2
17 9 2
18 9 2
19 9 2
20 9 2
21 9 2
22 9 2
23 9 2
24 9 2
25 9 2
1 10 2
2 10 2
3 10 2
4 10 2
5 10 2
6 10 2
7 10 2
8 10 2
9 10 2
10 10 2
11 10 2
12 10 2
13 10 2
14 10 2
15 10 2
16 10 2
17 10 2
18 10 2
19 10 2
20 10 2
21 10 2
22 10 2
23 10 2
24 10 2
25 10 2
1 11 2
2 11 2
3 11 2
4 11 2
5 11 2
6 11 2
7 11 2
8 11 2
9 11 2
10 11 2
11 11 2
12 11 2
13 11 2
14 11 2
15 11 2
16 11 2
17 11 2
18 11 2
19 11 2
20 11 2
21 11 2
22 11 2
23 11 2
24 11 2
25 11 2
1 12 2
2 12 2
3 12 2
4 12 2
5 12 2
6 12 2
7 12 2
8 12 2
9 12 2
10 12 2
11 12 2
12 12 2
13 12 2
14 12 2
15 12 2
16 12 2
17 12 2
18 12 2
19 12 2
20 12 2
21 12 2
22 12 2
23 12 2
24 12 2
25 12 2
1 13 2
2 13 2
3 13 2
4 13 2
5 13 2
6 13 2
7 13 2
8 13 2
9 13 2
10 13 2
11 13 2
12 13 2
13 13 2
14 13 2
15 13 2
16 13 2
17 13 2
18 13 2
19 13 2
20 13 2
21 13 2
22 13 2
23 13 2
24 13 2
25 13 2
1 14 2
2 14 2
3 14 2
4 14 2
5 14 2
6 14 2
7 14 2
8 14 2
9 14 2
10 14 2
11 14 2
12 14 2
13 14 2
14 14 2
15 14 2
16 14 2
17 14 2
18 14 2
19 14 2
20 14 2
21 14 2
22 14 2
23 14 2
24 14 2
25 14 2
1 15 2
2 15 2
3 15 2
4 15 2
5 15 2
6 15 2
7 15 2
8 15 2
9 15 2
10 15 2
11 15 2
12 15 2
13 15 2
14 15 2
15 15 2
16 15 2
17 15 2
18 15 2
19 15 2
20 15 2
21 15 2
22 15 2
23 15 2
24 15 2
25 15 2
1 16 2
2 16 2
3 16 2
4 16 2
5 16 2
6 16 2
7 16 2
8 16 2
9 16 2
10 16 2
11 16 2
12 16 2
13 16 2
14 16 2
15 16 2
16 16 2
17 16 2
18 16 2
19 16 2
20 16 2
21 16 2
22 16 2
23 16 2
24 16 2
25 16 2
1 17 2
2 17 2
3 17 2
4 17 2
5 17 2
6 17 2
7 17 2
8 17 2
9 17 2
10 17 2
11 17 2
12 17 2
13 17 2
14 17 2
15 17 2
16 17 2
17 17 2
18 17 2
19 17 2
20 17 2
21 17 2
22 17 2
23 17 2
24 17 2
25 17 2
1 18 2
2 18 2
3 18 2
4 18 2
5 18 2
6 18 2
7 18 2
8 18 2
9 18 2
10 18 2
11 18 2
12 18 2
13 18 2
14 18 2
15 18 2
16 18 2
17 18 2
18 18 2
19 18 2
20 18 2
21 18 2
22 18 2
23 18 2
24 18 2
25 18 2
1 19 2
2 19 2
3 19 2
4 19 2
5 19 2
6 19 2
7 19 2
8 19 2
9 19 2
10 19 2
11 19 2
12 19 2
13 19 2
14 19 2
15 19 2
16 19 2
17 19 2
18 19 2
19 19 2
20 19 2
21 19 2
22 19 2
23 19 2
24 19 2
25 19 2
1 20 2
2 20 2
3 20 2
4 20 2
5 20 2
6 20 2
7 20 2
8 20 2
9 20 2
10 20 2
11 20 2
12 20 2
13 20 2
14 20 2
15 20 2
16 20 2
17 20 2
18 20 2
19 20 2
20 20 2
21 20 2
22 20 2
23 20 2
24 20 2
25 20 2
1 21 2
2 21 2
3 21 2
4 21 2
5 21 2
6 21 2
7 21 2
8 21 2
9 21 2
10 21 2
11 21 2
12 21 2
13 21 2
14 21 2
15 21 2
16 21 2
17 21 2
18 21 2
19 21 2
20 21 2
21 21 2
22 21 2
23 21 2
24 21 2
25 21 2
1 22 2
2 22 2
3 22 2
4 22 2
5 22 2
6 22 2
7 22 2
8 22 2
9 22 2
10 22 2
11 22 2
12 22 2
13 22 2
14 22 2
15 22 2
16 22 2
17 22 2
18 22 2
19 22 2
20 22 2
21 22 2
22 22 2
23 22 2
24 22 2
25 22 2
1 23 2
2 23 2
3 23 2
4 23 2
5 23 2
6 23 2
7 23 2
8 23 2
9 23 2
10 23 2
11 23 2
12 23 2
13 23 2
14 23 2
15 23 2
16 23 2
17 23 2
18 23 2
19 23 2
20 23 2
21 23 2
22 23 2
23 23 2
24 23 2
25 23 2
1 24 2
2 24 2
3 24 2
4 24 2
5 24 2
6 24 2
7 24 2
8 24 2
9 24 2
10 24 2
11 24 2
12 24 2
13 24 2
14 24 2
15 24 2
16 24 2
17 24 2
18 24 2
19 24 2
20 24 2
21 24 2
22 24 2
23 24 2
24 24 2
25 24 2
1 25 2
2 25 2
3 25 2
4 25 2
5 25 2
6 25 2
7 25 2
8 25 2
9 25 2
10 25 2
11 25 2
12 25 2
13 25 2
14 25 2
15 25 2
16 25 2
17 25 2
18 25 2
19 25 2
20 25 2
21 25 2
22 25 2
23 25 2
24 25 2
25 25 2
1 1 3
2 1 3
3 1 3
4 1 3
5 1 3
6 1 3
7 1 3
8 1 3
9 1 3
10 1 3
11 1 3
12 1 3
13 1 3
14 1 3
15 1 3
16 1 3
17 1 3
18 1 3
19 1 3
20 1 3
21 1 3
22 1 3
23 1 3
24 1 3
25 1 3
1 2 3
2 2 3
3 2 3
4 2 3
5 2 3
6 2 3
7 2 3
8 2 3
9 2 3
10 2 3
11 2 3
12 2 3
13 2 3
14 2 3
15 2 3
16 2 3
17 2 3
18 2 3
19 2 3
20 2 3
21 2 3
22 2 3
23 2 3
24 2 3
25 2 3
1 3 3
2 3 3
3 3 3
4 3 3
5 3 3
6 3 3
7 3 3
8 3 3
9 3 3
10 3 3
11 3 3
12 3 3
13 3 3
14 3 3
15 3 3
16 3 3
17 3 3
18 3 3
19 3 3
20 3 3
21 3 3
22 3 3
23 3 3
24 3 3
25 3 3
1 4 3
2 4 3
3 4 3
4 4 3
5 4 3
6 4 3
7 4 3
8 4 3
9 4 3
10 4 3
11 4 3
12 4 3
13 4 3
14 4 3
15 4 3
16 4 3
17 4 3
18 4 3
19 4 3
20 4 3
21 4 3
22 4 3
23 4 3
24 4 3
25 4 3
1 5 3
2 5 3
3 5 3
4 5 3
5 5 3
6 5 3
7 5 3
8 5 3
9 5 3
10 5 3
11 5 3
12 5 3
13 5 3
14 5 3
15 5 3
[...]
POINT_DATA 15625 
SCALARS density float 1 
LOOKUP_TABLE default 
1.003220
1.003343
1.003331
1.003216
1.003019
1.002758
1.002447
1.002094
1.001709
1.001300
1.000875
1.000439
1.000000
0.999565
0.999140
0.998732
0.998346
0.997987
0.997663
0.997380
0.997147
0.996973
0.996875
0.996873
0.996997
1.003378
1.003441
1.003403
1.003271
1.003062
1.002792
1.002472
1.002113
1.001723
1.001310
1.000882
1.000444
1.000004
0.999567
0.999139
0.998727
0.998335
0.997971
0.997639
0.997347
0.997102
0.996916
0.996802
0.996773
0.996839
1.003478
1.003514
1.003453
1.003305
1.003084
1.002805
1.002478
1.002114
1.001722
1.001309
1.000881
1.000445
1.000007
0.999572
0.999145
0.998733
0.998340
0.997972
0.997634
0.997334
0.997080
0.996881
0.996749
0.996698
0.996738
1.003548
1.003566
1.003488
1.003325
1.003093
1.002805
1.002473
1.002106
1.001713
1.001302
1.000877
1.000445
1.000010
0.999579
0.999156
0.998746
0.998353
0.997983
0.997642
0.997335
0.997071
0.996860
0.996713
0.996646
0.996668
1.003598
1.003603
1.003512
1.003337
1.003095
1.002799
1.002462
1.002093
1.001701
1.001292
1.000871
1.000443
1.000014
0.999589
0.999170
0.998763
0.998371
0.998000
0.997655
0.997342
0.997069
0.996847
0.996689
0.996607
0.996617
1.003635
1.003631
1.003530
1.003345
1.003094
1.002792
1.002451
1.002081
1.001689
1.001282
1.000865
1.000442
1.000019
0.999598
0.999183
0.998779
0.998389
0.998017
0.997669
0.997351
0.997071
0.996840
0.996670
0.996579
0.996580
1.003664
1.003654
1.003544
1.003351
1.003094
1.002786
1.002442
1.002070
1.001678
1.001273
1.000860
1.000442
1.000023
0.999606
0.999196
0.998794
0.998405
0.998033
0.997682
0.997360
0.997073
0.996834
0.996656
0.996556
0.996551
1.003687
1.003672
1.003556
1.003358
1.003094
1.002783
1.002435
1.002062
1.001671
1.001267
1.000856
1.000442
1.000026
0.999614
0.999206
0.998807
0.998419
0.998046
0.997693
0.997366
0.997074
0.996829
0.996645
0.996539
0.996529
1.003705
1.003687
1.003567
1.003364
1.003096
1.002781
1.002431
1.002057
1.001666
1.001263
1.000854
1.000442
1.000030
0.999619
0.999214
0.998816
0.998429
0.998055
0.997700
0.997370
0.997074
0.996824
0.996635
0.996524
0.996511
1.003719
1.003698
1.003575
1.003369
1.003099
1.002781
1.002429
1.002054
1.001663
1.001261
1.000853
1.000443
1.000032
0.999624
0.999220
0.998823
0.998436
0.998061
0.997705
0.997372
0.997073
0.996820
0.996627
0.996513
0.996497
1.003729
1.003707
1.003582
1.003373
1.003101
1.002782
1.002429
1.002053
1.001661
1.001260
1.000853
1.000443
1.000034
0.999627
0.999224
0.998827
0.998440
0.998065
0.997707
0.997373
0.997072
0.996816
0.996621
0.996505
0.996487
1.003735
1.003712
1.003586
1.003376
1.003103
1.002782
1.002428
1.002052
1.001660
1.001259
1.000853
1.000444
1.000035
0.999629
0.999226
0.998830
0.998443
0.998067
0.997709
0.997374
0.997071
0.996813
0.996617
0.996500
0.996482
1.003737
1.003714
1.003587
1.003377
1.003103
1.002783
1.002429
1.002052
1.001660
1.001259
1.000853
1.000444
1.000036
0.999629
0.999227
0.998831
0.998443
0.998068
0.997709
0.997374
0.997071
0.996813
0.996615
0.996498
0.996480
1.003735
1.003712
1.003586
1.003376
1.003103
1.002782
1.002428
1.002052
1.001660
1.001259
1.000853
1.000444
1.000035
0.999629
0.999226
0.998830
0.998443
0.998067
0.997709
0.997374
0.997071
0.996813
0.996617
0.996500
0.996482
1.003729
1.003707
1.003582
1.003373
1.003101
1.002782
1.002429
1.002053
1.001661
1.001260
1.000853
1.000443
1.000034
0.999627
0.999224
0.998827
0.998440
0.998065
0.997707
0.997373
0.997072
0.996816
0.996621
0.996505
0.996487
1.003719
1.003698
1.003575
1.003369
1.003099
1.002781
1.002429
1.002054
1.001663
1.001261
1.000853
1.000443
1.000032
0.999624
0.999220
0.998823
0.998436
0.998061
0.997705
0.997372
0.997073
0.996820
0.996627
0.996513
0.996497
1.003705
1.003687
1.003567
1.003364
1.003096
1.002781
1.002431
1.002057
1.001666
1.001263
1.000854
1.000442
1.000030
0.999619
0.999214
0.998816
0.998429
0.998055
0.997700
0.997370
0.997074
0.996824
0.996635
0.996524
0.996511
1.003687
1.003672
1.003556
1.003358
1.003094
1.002783
1.002435
1.002062
1.001671
1.001267
1.000856
1.000442
1.000026
0.999614
0.999206
0.998807
0.998419
0.998046
0.997693
0.997366
0.997074
0.996829
0.996645
0.996539
0.996529
1.003664
1.003654
1.003544
1.003351
1.003094
1.002786
1.002442
1.002070
1.001678
1.001273
1.000860
1.000442
1.000023
0.999606
0.999196
0.998794
0.998405
0.998033
0.997682
0.997360
0.997073
0.996834
0.996656
0.996556
0.996551
1.003635
1.003631
1.003530
1.003345
1.003094
1.002792
1.002451
1.002081
1.001689
1.001282
1.000865
1.000442
1.000019
0.999598
0.999183
0.998779
0.998389
0.998017
0.997669
0.997351
0.997071
0.996840
0.996670
0.996579
0.996580
1.003598
1.003603
1.003512
1.003337
1.003095
1.002799
1.002462
1.002093
1.001701
1.001292
1.000871
1.000443
1.000014
0.999589
0.999170
0.998763
0.998371
0.998000
0.997655
0.997342
0.997069
0.996847
0.996689
0.996607
0.996617
1.003548
1.003566
1.003488
1.003325
1.003093
1.002805
1.002473
1.002106
1.001713
1.001302
1.000877
1.000445
1.000010
0.999579
0.999156
0.998746
0.998353
0.997983
0.997642
0.997335
0.997071
0.996860
0.996713
0.996646
0.996668
1.003478
1.003514
1.003453
1.003305
1.003084
1.002805
1.002478
1.002114
1.001722
1.001309
1.000881
1.000445
1.000007
0.999572
0.999145
0.998733
0.998340
0.997972
0.997634
0.997334
0.997080
0.996881
0.996749
0.996698
0.996738
1.003378
1.003441
1.003403
1.003271
1.003062
1.002792
1.002472
1.002113
1.001723
1.001310
1.000882
1.000444
1.000004
0.999567
0.999139
0.998727
0.998335
0.997971
0.997639
0.997347
0.997102
0.996916
0.996802
0.996773
0.996839
1.003220
1.003343
1.003331
1.003216
1.003019
1.002758
1.002447
1.002094
1.001709
1.001300
1.000875
1.000439
1.000000
0.999565
0.999140
0.998732
0.998346
0.997987
0.997663
0.997380
0.997147
0.996973
0.996875
0.996873
0.996997
1.003368
1.003437
1.003403
1.003275
1.003068
1.002799
1.002480
1.002121
1.001731
1.001317
1.000887
1.000447
1.000004
0.999565
0.999135
0.998721
0.998329
0.997963
0.997631
0.997340
0.997097
0.996913
0.996800
0.996777
0.996848
1.003465
1.003477
1.003415
1.003274
1.003062
1.002791
1.002470
1.002111
1.001722
1.001310
1.000883
1.000447
1.000007
0.999571
0.999144
0.998732
0.998340
0.997974
0.997641
0.997347
0.997100
0.996910
0.996785
0.996733
0.996748
1.003543
1.003523
1.003437
1.003281
1.003060
1.002783
1.002460
1.002101
1.001712
1.001303
1.000878
1.000446
1.000011
0.999579
0.999155
0.998745
0.998354
0.997988
0.997652
0.997354
0.997100
0.996900
0.996760
0.996684
0.996668
1.003601
1.003563
1.003460
1.003291
1.003060
1.002776
1.002450
1.002089
1.001701
1.001294
1.000873
1.000445
1.000015
0.999587
0.999167
0.998760
0.998370
0.998003
0.997664
0.997361
0.997100
0.996889
0.996734
0.996641
0.996608
1.003644
1.003596
1.003481
1.003300
1.003060
1.002770
1.002440
1.002077
1.001690
1.001285
1.000868
1.000444
1.000018
0.999595
0.999179
0.998775
0.998386
0.998018
0.997677
0.997369
0.997100
0.996879
0.996712
0.996607
0.996563
1.003678
1.003623
1.003499
1.003309
1.003061
1.002766
1.002432
1.002068
1.001681
1.001278
1.000864
1.000444
1.000022
0.999603
0.999191
0.998789
0.998401
0.998033
0.997689
0.997375
0.997100
0.996870
0.996694
0.996580
0.996529
1.003703
1.003644
1.003513
1.003317
1.003063
1.002763
1.002425
1.002060
1.001673
1.001272
1.000860
1.000444
1.000026
0.999611
0.999201
0.998801
0.998414
0.998045
0.997698
0.997381
0.997100
0.996863
0.996680
0.996558
0.996503
1.003724
1.003661
1.003526
1.003324
1.003066
1.002761
1.002421
1.002055
1.001668
1.001268
1.000858
1.000445
1.000030
0.999617
0.999210
0.998811
0.998425
0.998055
0.997706
0.997385
0.997099
0.996856
0.996668
0.996541
0.996483
1.003739
1.003675
1.003536
1.003331
1.003069
1.002761
1.002419
1.002051
1.001664
1.001265
1.000857
1.000445
1.000033
0.999622
0.999217
0.998819
0.998433
0.998062
0.997711
0.997387
0.997097
0.996851
0.996658
0.996528
0.996467
1.003751
1.003686
1.003545
1.003336
1.003072
1.002762
1.002418
1.002049
1.001662
1.001263
1.000857
1.000446
1.000035
0.999626
0.999222
0.998825
0.998439
0.998067
0.997715
0.997388
0.997095
0.996846
0.996650
0.996517
0.996456
1.003760
1.003693
1.003551
1.003341
1.003074
1.002763
1.002418
1.002049
1.001661
1.001262
1.000857
1.000447
1.000037
0.999629
0.999226
0.998829
0.998443
0.998070
0.997717
0.997389
0.997094
0.996842
0.996644
0.996510
0.996447
1.003765
1.003698
1.003555
1.003344
1.003076
1.002764
1.002419
1.002048
1.001661
1.001262
1.000857
1.000448
1.000038
0.999631
0.999228
0.998831
0.998445
0.998072
0.997718
0.997389
0.997093
0.996840
0.996640
0.996505
0.996442
1.003767
1.003700
1.003556
1.003345
1.003077
1.002765
1.002419
1.002048
1.001661
1.001262
1.000857
1.000448
1.000039
0.999631
0.999228
0.998832
0.998446
0.998073
0.997718
0.997389
0.997092
0.996839
0.996639
0.996504
0.996440
1.003765
1.003698
1.003555
1.003344
1.003076
1.002764
1.002419
1.002048
1.001661
1.001262
1.000857
1.000448
1.000038
0.999631
0.999228
0.998831
0.998445
0.998072
0.997718
0.997389
0.997093
0.996840
0.996640
0.996505
0.996442
1.003760
1.003693
1.003551
1.003341
1.003074
1.002763
1.002418
1.002049
1.001661
1.001262
1.000857
1.000447
1.000037
0.999629
0.999226
0.998829
0.998443
0.998070
0.997717
0.997389
0.997094
0.996842
0.996644
0.996510
0.996447
1.003751
1.003686
1.003545
1.003336
1.003072
1.002762
1.002418
1.002049
1.001662
1.001263
1.000857
1.000446
1.000035
0.999626
0.999222
0.998825
0.998439
0.998067
0.997715
0.997388
0.997095
0.996846
0.996650
0.996517
0.996456
1.003739
1.003675
1.003536
1.003331
1.003069
1.002761
1.002419
1.002051
1.001664
1.001265
1.000857
1.000445
1.000033
0.999622
0.999217
0.998819
0.998433
0.998062
0.997711
0.997387
0.997097
0.996851
0.996658
0.996528
0.996467
1.003724
1.003661
1.003526
1.003324
1.003066
1.002761
1.002421
1.002055
1.001668
1.001268
1.000858
1.000445
1.000030
0.999617
0.999210
0.998811
0.998425
0.998055
0.997706
0.997385
0.997099
0.996856
0.996668
0.996541
0.996483
1.003703
1.003644
1.003513
1.003317
1.003063
1.002763
1.002425
1.002060
1.001673
1.001272
1.000860
1.000444
1.000026
0.999611
0.999201
0.998801
0.998414
0.998045
0.997698
0.997381
0.997100
0.996863
0.996680
0.996558
0.996503
1.003678
1.003623
1.003499
1.003309
1.003061
1.002766
1.002432
1.002068
1.001681
1.001278
1.000864
1.000444
1.000022
0.999603
0.999191
0.998789
0.998401
0.998033
0.997689
0.997375
0.997100
0.996870
0.996694
0.996580
0.996529
1.003644
1.003596
1.003481
1.003300
1.003060
1.002770
1.002440
1.002077
1.001690
1.001285
1.000868
1.000444
1.000018
0.999595
0.999179
0.998775
0.998386
0.998018
0.997677
0.997369
0.997100
0.996879
0.996712
0.996607
0.996563
1.003601
1.003563
1.003460
1.003291
1.003060
1.002776
1.002450
1.002089
1.001701
1.001294
1.000873
1.000445
1.000015
0.999587
0.999167
0.998760
0.998370
0.998003
0.997664
0.997361
0.997100
0.996889
0.996734
0.996641
0.996608
1.003543
1.003523
1.003437
1.003281
1.003060
1.002783
1.002460
1.002101
1.001712
1.001303
1.000878
1.000446
1.000011
0.999579
0.999155
0.998745
0.998354
0.997988
0.997652
0.997354
0.997100
0.996900
0.996760
0.996684
0.996668
1.003465
1.003477
1.003415
1.003274
1.003062
1.002791
1.002470
1.002111
1.001722
1.001310
1.000883
1.000447
1.000007
0.999571
0.999144
0.998732
0.998340
0.997974
0.997641
0.997347
0.997100
0.996910
0.996785
0.996733
0.996748
1.003368
1.003437
1.003403
1.003275
1.003068
1.002799
1.002480
1.002121
1.001731
1.001317
1.000887
1.000447
1.000004
0.999565
0.999135
0.998721
0.998329
0.997963
0.997631
0.997340
0.997097
0.996913
0.996800
0.996777
0.996848
1.003425
1.003470
1.003418
1.003278
1.003064
1.002790
1.002469
1.002109
1.001720
1.001308
1.000882
1.000446
1.000008
0.999573
0.999146
0.998735
0.998343
0.997977
0.997643
0.997348
0.997099
0.996906
0.996781
0.996739
0.996788
1.003498
1.003481
1.003400
1.003248
1.003031
1.002759
1.002440
1.002084
1.001700
1.001293
1.000872
1.000443
1.000011
0.999582
0.999161
0.998754
0.998366
0.998003
0.997671
0.997377
0.997127
0.996930
0.996794
0.996722
0.996709
1.003561
1.003509
1.003405
1.003239
1.003015
1.002739
1.002420
1.002066
1.001684
1.001281
1.000865
1.000441
1.000014
0.999590
0.999174
0.998771
0.998386
0.998024
0.997692
0.997395
0.997141
0.996936
0.996785
0.996690
0.996642
1.003613
1.003541
1.003419
1.003240
1.003008
1.002727
1.002406
1.002051
1.001671
1.001272
1.000859
1.000440
1.000018
0.999599
0.999187
0.998786
0.998403
0.998042
0.997708
0.997408
0.997148
0.996933
0.996769
0.996656
0.996588
1.003654
1.003570
1.003435
1.003246
1.003005
1.002720
1.002395
1.002040
1.001661
1.001264
1.000855
1.000439
1.000022
0.999607
0.999198
0.998801
0.998419
0.998057
0.997721
0.997417
0.997150
0.996926
0.996751
0.996625
0.996545
1.003686
1.003595
1.003451
1.003254
1.003007
1.002716
1.002388
1.002032
1.001653
1.001258
1.000852
1.000439
1.000026
0.999614
0.999209
0.998813
0.998432
0.998070
0.997732
0.997423
0.997150
0.996919
0.996734
0.996600
0.996512
1.003711
1.003615
1.003466
1.003262
1.003009
1.002714
1.002384
1.002026
1.001647
1.001253
1.000850
1.000440
1.000029
0.999621
0.999218
0.998824
0.998443
0.998080
0.997740
0.997427
0.997149
0.996911
0.996720
0.996579
0.996487
1.003731
1.003632
1.003479
1.003271
1.003013
1.002714
1.002382
1.002023
1.001644
1.001251
1.000849
1.000441
1.000033
0.999626
0.999225
0.998832
0.998452
0.998088
0.997745
0.997429
0.997147
0.996904
0.996707
0.996562
0.996467
1.003746
1.003646
1.003489
1.003278
1.003017
1.002716
1.002381
1.002021
1.001642
1.001249
1.000848
1.000443
1.000036
0.999631
0.999231
0.998839
0.998459
0.998094
0.997749
0.997431
0.997144
0.996898
0.996697
0.996548
0.996452
1.003757
1.003656
1.003498
1.003284
1.003021
1.002718
1.002381
1.002020
1.001641
1.001249
1.000848
1.000444
1.000038
0.999635
0.999235
0.998844
0.998463
0.998098
0.997752
0.997431
0.997142
0.996892
0.996689
0.996538
0.996441
1.003765
1.003664
1.003504
1.003289
1.003024
1.002719
1.002382
1.002020
1.001641
1.001248
1.000849
1.000445
1.000040
0.999637
0.999239
0.998847
0.998467
0.998100
0.997753
0.997431
0.997140
0.996888
0.996683
0.996531
0.996433
1.003770
1.003668
1.003508
1.003292
1.003026
1.002720
1.002383
1.002020
1.001640
1.001248
1.000849
1.000445
1.000041
0.999639
0.999240
0.998849
0.998468
0.998102
0.997754
0.997431
0.997139
0.996886
0.996680
0.996527
0.996429
1.003771
1.003669
1.003509
1.003293
1.003027
1.002721
1.002383
1.002020
1.001640
1.001248
1.000849
1.000446
1.000041
0.999639
0.999241
0.998850
0.998469
0.998102
0.997754
0.997430
0.997138
0.996885
0.996679
0.996526
0.996427
1.003770
1.003668
1.003508
1.003292
1.003026
1.002720
1.002383
1.002020
1.001640
1.001248
1.000849
1.000445
1.000041
0.999639
0.999240
0.998849
0.998468
0.998102
0.997754
0.997431
0.997139
0.996886
0.996680
0.996527
0.996429
1.003765
1.003664
1.003504
1.003289
1.003024
1.002719
1.002382
1.002020
1.001641
1.001248
1.000849
1.000445
1.000040
0.999637
0.999239
0.998847
0.998467
0.998100
0.997753
0.997431
0.997140
0.996888
0.996683
0.996531
0.996433
1.003757
1.003656
1.003498
1.003284
1.003021
1.002718
1.002381
1.002020
1.001641
1.001249
1.000848
1.000444
1.000038
0.999635
0.999235
0.998844
0.998463
0.998098
0.997752
0.997431
0.997142
0.996892
0.996689
0.996538
0.996441
1.003746
1.003646
1.003489
1.003278
1.003017
1.002716
1.002381
1.002021
1.001642
1.001249
1.000848
1.000443
1.000036
0.999631
0.999231
0.998839
0.998459
0.998094
0.997749
0.997431
0.997144
0.996898
0.996697
0.996548
0.996452
1.003731
1.003632
1.003479
1.003271
1.003013
1.002714
1.002382
1.002023
1.001644
1.001251
1.000849
1.000441
1.000033
0.999626
0.999225
0.998832
0.998452
0.998088
0.997745
0.997429
0.997147
0.996904
0.996707
0.996562
0.996467
1.003711
1.003615
1.003466
1.003262
1.003009
1.002714
1.002384
1.002026
1.001647
1.001253
1.000850
1.000440
1.000029
0.999621
0.999218
0.998824
0.998443
0.998080
0.997740
0.997427
0.997149
0.996911
0.996720
0.996579
0.996487
1.003686
1.003595
1.003451
1.003254
1.003007
1.002716
1.002388
1.002032
1.001653
1.001258
1.000852
1.000439
1.000026
0.999614
0.999209
0.998813
0.998432
0.998070
0.997732
0.997423
0.997150
0.996919
0.996734
0.996600
0.996512
1.003654
1.003570
1.003435
1.003246
1.003005
1.002720
1.002395
1.002040
1.001661
1.001264
1.000855
1.000439
1.000022
0.999607
0.999198
0.998801
0.998419
0.998057
0.997721
0.997417
0.997150
0.996926
0.996751
0.996625
0.996545
1.003613
1.003541
1.003419
1.003240
1.003008
1.002727
1.002406
1.002051
1.001671
1.001272
1.000859
1.000440
1.000018
0.999599
0.999187
0.998786
0.998403
0.998042
0.997708
0.997408
0.997148
0.996933
0.996769
0.996656
0.996588
1.003561
1.003509
1.003405
1.003239
1.003015
1.002739
1.002420
1.002066
1.001684
1.001281
1.000865
1.000441
1.000014
0.999590
0.999174
0.998771
0.998386
0.998024
0.997692
0.997395
0.997141
0.996936
0.996785
0.996690
0.996642
1.003498
1.003481
1.003400
1.003248
1.003031
1.002759
1.002440
1.002084
1.001700
1.001293
1.000872
1.000443
1.000011
0.999582
0.999161
0.998754
0.998366
0.998003
0.997671
0.997377
0.997127
0.996930
0.996794
0.996722
0.996709
1.003425
1.003470
1.003418
1.003278
1.003064
1.002790
1.002469
1.002109
1.001720
1.001308
1.000882
1.000446
1.000008
0.999573
0.999146
0.998735
0.998343
0.997977
0.997643
0.997348
0.997099
0.996906
0.996781
0.996739
0.996788
1.003409
1.003440
1.003376
1.003227
1.003008
1.002734
1.002415
1.002060
1.001678
1.001276
1.000860
1.000437
1.000011
0.999588
0.999173
0.998771
0.998387
0.998027
0.997697
0.997402
0.997150
0.996951
0.996817
0.996762
0.996796
1.003471
1.003440
1.003345
1.003185
1.002965
1.002693
1.002378
1.002029
1.001653
1.001258
1.000849
1.000432
1.000014
0.999598
0.999189
0.998793
0.998415
0.998059
0.997732
0.997440
0.997189
0.996988
0.996842
0.996756
0.996728
1.003528
1.003459
1.003340
1.003167
1.002941
1.002667
1.002353
1.002007
1.001635
1.001244
1.000841
1.000430
1.000017
0.999606
0.999203
0.998812
0.998437
0.998083
0.997757
0.997464
0.997211
0.997001
0.996842
0.996732
0.996666
1.003579
1.003485
1.003348
1.003163
1.002929
1.002652
1.002337
1.001991
1.001621
1.001234
1.000835
1.000429
1.000020
0.999615
0.999216
0.998827
0.998455
0.998103
0.997776
0.997480
0.997221
0.997004
0.996831
0.996703
0.996613
1.003620
1.003511
1.003362
1.003166
1.002925
1.002643
1.002326
1.001980
1.001612
1.001227
1.000831
1.000428
1.000024
0.999622
0.999227
0.998841
0.998470
0.998118
0.997790
0.997490
0.997226
0.997000
0.996816
0.996675
0.996570
1.003653
1.003536
1.003377
1.003174
1.002926
1.002640
1.002320
1.001973
1.001605
1.001222
1.000828
1.000429
1.000028
0.999629
0.999236
0.998852
0.998482
0.998129
0.997799
0.997496
0.997226
0.996993
0.996800
0.996650
0.996536
1.003679
1.003557
1.003392
1.003182
1.002930
1.002639
1.002317
1.001969
1.001601
1.001219
1.000827
1.000430
1.000032
0.999635
0.999244
0.998862
0.998492
0.998138
0.997806
0.997499
0.997224
0.996985
0.996786
0.996629
0.996510
1.003699
1.003574
1.003405
1.003191
1.002935
1.002641
1.002317
1.001968
1.001600
1.001218
1.000827
1.000432
1.000035
0.999640
0.999251
0.998869
0.998499
0.998145
0.997810
0.997501
0.997221
0.996977
0.996773
0.996612
0.996490
1.003714
1.003588
1.003416
1.003199
1.002940
1.002644
1.002318
1.001967
1.001599
1.001218
1.000828
1.000434
1.000038
0.999645
0.999256
0.998875
0.998504
0.998149
0.997813
0.997501
0.997218
0.996971
0.996763
0.996598
0.996475
1.003726
1.003598
1.003425
1.003206
1.002944
1.002647
1.002319
1.001968
1.001599
1.001218
1.000829
1.000435
1.000041
0.999648
0.999260
0.998879
0.998508
0.998152
0.997814
0.997500
0.997215
0.996965
0.996755
0.996588
0.996464
1.003734
1.003606
1.003432
1.003211
1.002948
1.002649
1.002320
1.001968
1.001599
1.001218
1.000829
1.000436
1.000042
0.999650
0.999262
0.998881
0.998511
0.998154
0.997815
0.997500
0.997213
0.996961
0.996749
0.996581
0.996456
1.003738
1.003610
1.003435
1.003214
1.002950
1.002650
1.002321
1.001969
1.001600
1.001219
1.000830
1.000437
1.000043
0.999651
0.999264
0.998883
0.998512
0.998155
0.997816
0.997499
0.997212
0.996959
0.996746
0.996577
0.996452
1.003740
1.003611
1.003437
1.003215
1.002951
1.002651
1.002322
1.001969
1.001600
1.001219
1.000830
1.000437
1.000044
0.999652
0.999264
0.998883
0.998513
0.998155
0.997816
0.997499
0.997211
0.996958
0.996744
0.996575
0.996450
1.003738
1.003610
1.003435
1.003214
1.002950
1.002650
1.002321
1.001969
1.001600
1.001219
1.000830
1.000437
1.000043
0.999651
0.999264