# vtk DataFile Version 2.0
generated by CFD-lab course output 
ASCII

DATASET STRUCTURED_GRID
DIMENSIONS  25 25 25 
POINTS 15625 float

1 1 1
2 1 1
3 1 1
4 1 1
5 1 1
6 1 1
7 1 1
8 1 1
9 1 1
10 1 1
11 1 1
12 1 1
13 1 1
14 1 1
15 1 1
16 1 1
17 1 1
18 1 1
19 1 1
20 1 1
21 1 1
22 1 1
23 1 1
24 1 1
25 1 1
1 2 1
2 2 1
3 2 1
4 2 1
5 2 1
6 2 1
7 2 1
8 2 1
9 2 1
10 2 1
11 2 1
12 2 1
13 2 1
14 2 1
15 2 1
16 2 1
17 2 1
18 2 1
19 2 1
20 2 1
21 2 1
22 2 1
23 2 1
24 2 1
25 2 1
1 3 1
2 3 1
3 3 1
4 3 1
5 3 1
6 3 1
7 3 1
8 3 1
9 3 1
10 3 1
11 3 1
12 3 1
13 3 1
14 3 1
15 3 1
16 3 1
17 3 1
18 3 1
19 3 1
20 3 1
21 3 1
22 3 1
23 3 1
24 3 1
25 3 1
1 4 1
2 4 1
3 4 1
4 4 1
5 4 1
6 4 1
7 4 1
8 4 1
9 4 1
10 4 1
11 4 1
12 4 1
13 4 1
14 4 1
15 4 1
16 4 1
17 4 1
18 4 1
19 4 1
20 4 1
21 4 1
22 4 1
23 4 1
24 4 1
25 4 1
1 5 1
2 5 1
3 5 1
4 5 1
5 5 1
6 5 1
7 5 1
8 5 1
9 5 1
10 5 1
11 5 1
12 5 1
13 5 1
14 5 1
15 5 1
16 5 1
17 5 1
18 5 1
19 5 1
20 5 1
21 5 1
22 5 1
23 5 1
24 5 1
25 5 1
1 6 1
2 6 1
3 6 1
4 6 1
5 6 1
6 6 1
7 6 1
8 6 1
9 6 1
10 6 1
11 6 1
12 6 1
13 6 1
14 6 1
15 6 1
16 6 1
17 6 1
18 6 1
19 6 1
20 6 1
21 6 1
22 6 1
23 6 1
24 6 1
25 6 1
1 7 1
2 7 1
3 7 1
4 7 1
5 7 1
6 7 1
7 7 1
8 7 1
9 7 1
10 7 1
11 7 1
12 7 1
13 7 1
14 7 1
15 7 1
16 7 1
17 7 1
18 7 1
19 7 1
20 7 1
21 7 1
22 7 1
23 7 1
24 7 1
25 7 1
1 8 1
2 8 1
3 8 1
4 8 1
5 8 1
6 8 1
7 8 1
8 8 1
9 8 1
10 8 1
11 8 1
12 8 1
13 8 1
14 8 1
15 8 1
16 8 1
17 8 1
18 8 1
19 8 1
20 8 1
21 8 1
22 8 1
23 8 1
24 8 1
25 8 1
1 9 1
2 9 1
3 9 1
4 9 1
5 9 1
6 9 1
7 9 1
8 9 1
9 9 1
10 9 1
11 9 1
12 9 1
13 9 1
14 9 1
15 9 1
16 9 1
17 9 1
18 9 1
19 9 1
20 9 1
21 9 1
22 9 1
23 9 1
24 9 1
25 9 1
1 10 1
2 10 1
3 10 1
4 10 1
5 10 1
6 10 1
7 10 1
8 10 1
9 10 1
10 10 1
11 10 1
12 10 1
13 10 1
14 10 1
15 10 1
16 10 1
17 10 1
18 10 1
19 10 1
20 10 1
21 10 1
22 10 1
23 10 1
24 10 1
25 10 1
1 11 1
2 11 1
3 11 1
4 11 1
5 11 1
6 11 1
7 11 1
8 11 1
9 11 1
10 11 1
11 11 1
12 11 1
13 11 1
14 11 1
15 11 1
16 11 1
17 11 1
18 11 1
19 11 1
20 11 1
21 11 1
22 11 1
23 11 1
24 11 1
25 11 1
1 12 1
2 12 1
3 12 1
4 12 1
5 12 1
6 12 1
7 12 1
8 12 1
9 12 1
10 12 1
11 12 1
12 12 1
13 12 1
14 12 1
15 12 1
16 12 1
17 12 1
18 12 1
19 12 1
20 12 1
21 12 1
22 12 1
23 12 1
24 12 1
25 12 1
1 13 1
2 13 1
3 13 1
4 13 1
5 13 1
6 13 1
7 13 1
8 13 1
9 13 1
10 13 1
11 13 1
12 13 1
13 13 1
14 13 1
15 13 1
16 13 1
17 13 1
18 13 1
19 13 1
20 13 1
21 13 1
22 13 1
23 13 1
24 13 1
25 13 1
1 14 1
2 14 1
3 14 1
4 14 1
5 14 1
6 14 1
7 14 1
8 14 1
9 14 1
10 14 1
11 14 1
12 14 1
13 14 1
14 14 1
15 14 1
16 14 1
17 14 1
18 14 1
19 14 1
20 14 1
21 14 1
22 14 1
23 14 1
24 14 1
25 14 1
1 15 1
2 15 1
3 15 1
4 15 1
5 15 1
6 15 1
7 15 1
8 15 1
9 15 1
10 15 1
11 15 1
12 15 1
13 15 1
14 15 1
15 15 1
16 15 1
17 15 1
18 15 1
19 15 1
20 15 1
21 15 1
22 15 1
23 15 1
24 15 1
25 15 1
1 16 1
2 16 1
3 16 1
4 16 1
5 16 1
6 16 1
7 16 1
8 16 1
9 16 1
10 16 1
11 16 1
12 16 1
13 16 1
14 16 1
15 16 1
16 16 1
17 16 1
18 16 1
19 16 1
20 16 1
21 16 1
22 16 1
23 16 1
24 16 1
25 16 1
1 17 1
2 17 1
3 17 1
4 17 1
5 17 1
6 17 1
7 17 1
8 17 1
9 17 1
10 17 1
11 17 1
12 17 1
13 17 1
14 17 1
15 17 1
16 17 1
17 17 1
18 17 1
19 17 1
20 17 1
21 17 1
22 17 1
23 17 1
24 17 1
25 17 1
1 18 1
2 18 1
3 18 1
4 18 1
5 18 1
6 18 1
7 18 1
8 18 1
9 18 1
10 18 1
11 18 1
12 18 1
13 18 1
14 18 1
15 18 1
16 18 1
17 18 1
18 18 1
19 18 1
20 18 1
21 18 1
22 18 1
23 18 1
24 18 1
25 18 1
1 19 1
2 19 1
3 19 1
4 19 1
5 19 1
6 19 1
7 19 1
8 19 1
9 19 1
10 19 1
11 19 1
12 19 1
13 19 1
14 19 1
15 19 1
16 19 1
17 19 1
18 19 1
19 19 1
20 19 1
21 19 1
22 19 1
23 19 1
24 19 1
25 19 1
1 20 1
2 20 1
3 20 1
4 20 1
5 20 1
6 20 1
7 20 1
8 20 1
9 20 1
10 20 1
11 20 1
12 20 1
13 20 1
14 20 1
15 20 1
16 20 1
17 20 1
18 20 1
19 20 1
20 20 1
21 20 1
22 20 1
23 20 1
24 20 1
25 20 1
1 21 1
2 21 1
3 21 1
4 21 1
5 21 1
6 21 1
7 21 1
8 21 1
9 21 1
10 21 1
11 21 1
12 21 1
13 21 1
14 21 1
15 21 1
16 21 1
17 21 1
18 21 1
19 21 1
20 21 1
21 21 1
22 21 1
23 21 1
24 21 1
25 21 1
1 22 1
2 22 1
3 22 1
4 22 1
5 22 1
6 22 1
7 22 1
8 22 1
9 22 1
10 22 1
11 22 1
12 22 1
13 22 1
14 22 1
15 22 1
16 22 1
17 22 1
18 22 1
19 22 1
20 22 1
21 22 1
22 22 1
23 22 1
24 22 1
25 22 1
1 23 1
2 23 1
3 23 1
4 23 1
5 23 1
6 23 1
7 23 1
8 23 1
9 23 1
10 23 1
11 23 1
12 23 1
13 23 1
14 23 1
15 23 1
16 23 1
17 23 1
18 23 1
19 23 1
20 23 1
21 23 1
22 23 1
23 23 1
24 23 1
25 23 1
1 24 1
2 24 1
3 24 1
4 24 1
5 24 1
6 24 1
7 24 1
8 24 1
9 24 1
10 24 1
11 24 1
12 24 1
13 24 1
14 24 1
15 24 1
16 24 1
17 24 1
18 24 1
19 24 1
20 24 1
21 24 1
22 24 1
23 24 1
24 24 1
25 24 1
1 25 1
2 25 1
3 25 1
4 25 1
5 25 1
6 25 1
7 25 1
8 25 1
9 25 1
10 25 1
11 25 1
12 25 1
13 25 1
14 25 1
15 25 1
16 25 1
17 25 1
18 25 1
19 25 1
20 25 1
21 25 1
22 25 1
23 25 1
24 25 1
25 25 1
1 1 2
2 1 2
3 1 2
4 1 2
5 1 2
6 1 2
7 1 2
8 1 2
9 1 2
10 1 2
11 1 2
12 1 2
13 1 2
14 1 2
15 1 2
16 1 2
17 1 2
18 1 2
19 1 2
20 1 2
21 1 2
22 1 2
23 1 2
24 1 2
25 1 2
1 2 2
2 2 2
3 2 2
4 2 2
5 2 2
6 2 2
7 2 2
8 2 2
9 2 2
10 2 2
11 2 2
12 2 2
13 2 2
14 2 2
15 2 2
16 2 2
17 2 2
18 2 2
19 2 2
20 2 2
21 2 2
22 2 2
23 2 2
24 2 2
25 2 2
1 3 2
2 3 2
3 3 2
4 3 2
5 3 2
6 3 2
7 3 2
8 3 2
9 3 2
10 3 2
11 3 2
12 3 2
13 3 2
14 3 2
15 3 2
16 3 2
17 3 2
18 3 2
19 3 2
20 3 2
21 3 2
22 3 2
23 3 2
24 3 2
25 3 2
1 4 2
2 4 2
3 4 2
4 4 2
5 4 2
6 4 2
7 4 2
8 4 2
9 4 2
10 4 2
11 4 2
12 4 2
13 4 2
14 4 2
15 4 2
16 4 2
17 4 2
18 4 2
19 4 2
20 4 2
21 4 2
22 4 2
23 4 2
24 4 2
25 4 2
1 5 2
2 5 2
3 5 2
4 5 2
5 5 2
6 5 2
7 5 2
8 5 2
9 5 2
10 5 2
11 5 2
12 5 2
13 5 2
14 5 2
15 5 2
16 5 2
17 5 2
18 5 2
19 5 2
20 5 2
21 5 2
22 5 2
23 5 2
24 5 2
25 5 2
1 6 2
2 6 2
3 6 2
4 6 2
5 6 2
6 6 2
7 6 2
8 6 2
9 6 2
10 6 2
11 6 2
12 6 2
13 6 2
14 6 2
15 6 2
16 6 2
17 6 2
18 6 2
19 6 2
20 6 2
21 6 2
22 6 2
23 6 2
24 6 2
25 6 2
1 7 2
2 7 2
3 7 2
4 7 2
5 7 2
6 7 2
7 7 2
8 7 2
9 7 2
10 7 2
11 7 2
12 7 2
13 7 2
14 7 2
15 7 2
16 7 2
17 7 2
18 7 2
19 7 2
20 7 2
21 7 2
22 7 2
23 7 2
24 7 2
25 7 2
1 8 2
2 8 2
3 8 2
4 8 2
5 8 2
6 8 2
7 8 2
8 8 2
9 8 2
10 8 2
11 8 2
12 8 2
13 8 2
14 8 2
15 8 2
16 8 2
17 8 2
18 8 2
19 8 2
20 8 2
21 8 2
22 8 2
23 8 2
24 8 2
25 8 2
1 9 2
2 9 2
3 9 2
4 9 2
5 9 2
6 9 2
7 9 2
8 9 2
9 9 2
10 9 2
11 9 2
12 9 2
13 9 2
14 9 2
15 9 2
16 9 2
17 9 2
18 9 2
19 9 2
20 9 2
21 9 2
22 9 2
23 9 2
24 9 2
25 9 2
1 10 2
2 10 2
3 10 2
4 10 2
5 10 2
6 10 2
7 10 2
8 10 2
9 10 2
10 10 2
11 10 2
12 10 2
13 10 2
14 10 2
15 10 2
16 10 2
17 10 2
18 10 2
19 10 2
20 10 2
21 10 2
22 10 2
23 10 2
24 10 2
25 10 2
1 11 2
2 11 2
3 11 2
4 11 2
5 11 2
6 11 2
7 11 2
8 11 2
9 11 2
10 11 2
11 11 2
12 11 2
13 11 2
14 11 2
15 11 2
16 11 2
17 11 2
18 11 2
19 11 2
20 11 2
21 11 2
22 11 2
23 11 2
24 11 2
25 11 2
1 12 2
2 12 2
3 12 2
4 12 2
5 12 2
6 12 2
7 12 2
8 12 2
9 12 2
10 12 2
11 12 2
12 12 2
13 12 2
14 12 2
15 12 2
16 12 2
17 12 2
18 12 2
19 12 2
20 12 2
21 12 2
22 12 2
23 12 2
24 12 2
25 12 2
1 13 2
2 13 2
3 13 2
4 13 2
5 13 2
6 13 2
7 13 2
8 13 2
9 13 2
10 13 2
11 13 2
12 13 2
13 13 2
14 13 2
15 13 2
16 13 2
17 13 2
18 13 2
19 13 2
20 13 2
21 13 2
22 13 2
23 13 2
24 13 2
25 13 2
1 14 2
2 14 2
3 14 2
4 14 2
5 14 2
6 14 2
7 14 2
8 14 2
9 14 2
10 14 2
11 14 2
12 14 2
13 14 2
14 14 2
15 14 2
16 14 2
17 14 2
18 14 2
19 14 2
20 14 2
21 14 2
22 14 2
23 14 2
24 14 2
25 14 2
1 15 2
2 15 2
3 15 2
4 15 2
5 15 2
6 15 2
7 15 2
8 15 2
9 15 2
10 15 2
11 15 2
12 15 2
13 15 2
14 15 2
15 15 2
16 15 2
17 15 2
18 15 2
19 15 2
20 15 2
21 15 2
22 15 2
23 15 2
24 15 2
25 15 2
1 16 2
2 16 2
3 16 2
4 16 2
5 16 2
6 16 2
7 16 2
8 16 2
9 16 2
10 16 2
11 16 2
12 16 2
13 16 2
14 16 2
15 16 2
16 16 2
17 16 2
18 16 2
19 16 2
20 16 2
21 16 2
22 16 2
23 16 2
24 16 2
25 16 2
1 17 2
2 17 2
3 17 2
4 17 2
5 17 2
6 17 2
7 17 2
8 17 2
9 17 2
10 17 2
11 17 2
12 17 2
13 17 2
14 17 2
15 17 2
16 17 2
17 17 2
18 17 2
19 17 2
20 17 2
21 17 2
22 17 2
23 17 2
24 17 2
25 17 2
1 18 2
2 18 2
3 18 2
4 18 2
5 18 2
6 18 2
7 18 2
8 18 2
9 18 2
10 18 2
11 18 2
12 18 2
13 18 2
14 18 2
15 18 2
16 18 2
17 18 2
18 18 2
19 18 2
20 18 2
21 18 2
22 18 2
23 18 2
24 18 2
25 18 2
1 19 2
2 19 2
3 19 2
4 19 2
5 19 2
6 19 2
7 19 2
8 19 2
9 19 2
10 19 2
11 19 2
12 19 2
13 19 2
14 19 2
15 19 2
16 19 2
17 19 2
18 19 2
19 19 2
20 19 2
21 19 2
22 19 2
23 19 2
24 19 2
25 19 2
1 20 2
2 20 2
3 20 2
4 20 2
5 20 2
6 20 2
7 20 2
8 20 2
9 20 2
10 20 2
11 20 2
12 20 2
13 20 2
14 20 2
15 20 2
16 20 2
17 20 2
18 20 2
19 20 2
20 20 2
21 20 2
22 20 2
23 20 2
24 20 2
25 20 2
1 21 2
2 21 2
3 21 2
4 21 2
5 21 2
6 21 2
7 21 2
8 21 2
9 21 2
10 21 2
11 21 2
12 21 2
13 21 2
14 21 2
15 21 2
16 21 2
17 21 2
18 21 2
19 21 2
20 21 2
21 21 2
22 21 2
23 21 2
24 21 2
25 21 2
1 22 2
2 22 2
3 22 2
4 22 2
5 22 2
6 22 2
7 22 2
8 22 2
9 22 2
10 22 2
11 22 2
12 22 2
13 22 2
14 22 2
15 22 2
16 22 2
17 22 2
18 22 2
19 22 2
20 22 2
21 22 2
22 22 2
23 22 2
24 22 2
25 22 2
1 23 2
2 23 2
3 23 2
4 23 2
5 23 2
6 23 2
7 23 2
8 23 2
9 23 2
10 23 2
11 23 2
12 23 2
13 23 2
14 23 2
15 23 2
16 23 2
17 23 2
18 23 2
19 23 2
20 23 2
21 23 2
22 23 2
23 23 2
24 23 2
25 23 2
1 24 2
2 24 2
3 24 2
4 24 2
5 24 2
6 24 2
7 24 2
8 24 2
9 24 2
10 24 2
11 24 2
12 24 2
13 24 2
14 24 2
15 24 2
16 24 2
17 24 2
18 24 2
19 24 2
20 24 2
21 24 2
22 24 2
23 24 2
24 24 2
25 24 2
1 25 2
2 25 2
3 25 2
4 25 2
5 25 2
6 25 2
7 25 2
8 25 2
9 25 2
10 25 2
11 25 2
12 25 2
13 25 2
14 25 2
15 25 2
16 25 2
17 25 2
18 25 2
19 25 2
20 25 2
21 25 2
22 25 2
23 25 2
24 25 2
25 25 2
1 1 3
2 1 3
3 1 3
4 1 3
5 1 3
6 1 3
7 1 3
8 1 3
9 1 3
10 1 3
11 1 3
12 1 3
13 1 3
14 1 3
15 1 3
16 1 3
17 1 3
18 1 3
19 1 3
20 1 3
21 1 3
22 1 3
23 1 3
24 1 3
25 1 3
1 2 3
2 2 3
3 2 3
4 2 3
5 2 3
6 2 3
7 2 3
8 2 3
9 2 3
10 2 3
11 2 3
12 2 3
13 2 3
14 2 3
15 2 3
16 2 3
17 2 3
18 2 3
19 2 3
20 2 3
21 2 3
22 2 3
23 2 3
24 2 3
25 2 3
1 3 3
2 3 3
3 3 3
4 3 3
5 3 3
6 3 3
7 3 3
8 3 3
9 3 3
10 3 3
11 3 3
12 3 3
13 3 3
14 3 3
15 3 3
16 3 3
17 3 3
18 3 3
19 3 3
20 3 3
21 3 3
22 3 3
23 3 3
24 3 3
25 3 3
1 4 3
2 4 3
3 4 3
4 4 3
5 4 3
6 4 3
7 4 3
8 4 3
9 4 3
10 4 3
11 4 3
12 4 3
13 4 3
14 4 3
15 4 3
16 4 3
17 4 3
18 4 3
19 4 3
20 4 3
21 4 3
22 4 3
23 4 3
24 4 3
25 4 3
1 5 3
2 5 3
3 5 3
4 5 3
5 5 3
6 5 3
7 5 3
8 5 3
9 5 3
10 5 3
11 5 3
12 5 3
13 5 3
14 5 3
15 5 3
[...]
POINT_DATA 15625 
SCALARS density float 1 
LOOKUP_TABLE default 
0.999998
0.999997
0.999997
0.999997
0.999997
0.999997
0.999998
0.999998
0.999999
0.999999
0.999999
1.000000
1.000000
1.000000
1.000001
1.000001
1.000001
1.000002
1.000002
1.000003
1.000003
1.000003
1.000003
1.000003
1.000002
0.999997
0.999996
0.999995
0.999995
0.999995
0.999996
0.999997
0.999997
0.999998
0.999999
0.999999
1.000000
1.000000
1.000000
1.000001
1.000001
1.000002
1.000003
1.000003
1.000004
1.000005
1.000005
1.000005
1.000004
1.000003
0.999996
0.999995
0.999994
0.999994
0.999994
0.999995
0.999996
0.999997
0.999998
0.999998
0.999999
1.000000
1.000000
1.000000
1.000001
1.000002
1.000002
1.000003
1.000004
1.000005
1.000006
1.000006
1.000006
1.000005
1.000004
0.999996
0.999994
0.999993
0.999993
0.999993
0.999994
0.999995
0.999996
0.999997
0.999998
0.999999
0.999999
1.000000
1.000001
1.000001
1.000002
1.000003
1.000004
1.000005
1.000006
1.000007
1.000007
1.000007
1.000006
1.000004
0.999995
0.999993
0.999992
0.999992
0.999992
0.999993
0.999994
0.999996
0.999997
0.999998
0.999999
0.999999
1.000000
1.000001
1.000001
1.000002
1.000003
1.000004
1.000006
1.000007
1.000008
1.000008
1.000008
1.000007
1.000005
0.999995
0.999993
0.999992
0.999991
0.999992
0.999993
0.999994
0.999995
0.999997
0.999998
0.999999
0.999999
1.000000
1.000001
1.000001
1.000002
1.000003
1.000005
1.000006
1.000007
1.000008
1.000009
1.000008
1.000007
1.000005
0.999994
0.999992
0.999991
0.999991
0.999991
0.999992
0.999993
0.999995
0.999996
0.999998
0.999998
0.999999
1.000000
1.000001
1.000002
1.000002
1.000004
1.000005
1.000006
1.000008
1.000009
1.000009
1.000009
1.000008
1.000006
0.999994
0.999992
0.999991
0.999990
0.999991
0.999992
0.999993
0.999995
0.999996
0.999997
0.999998
0.999999
1.000000
1.000001
1.000002
1.000003
1.000004
1.000005
1.000007
1.000008
1.000009
1.000010
1.000009
1.000008
1.000006
0.999994
0.999992
0.999990
0.999990
0.999991
0.999992
0.999993
0.999995
0.999996
0.999997
0.999998
0.999999
1.000000
1.000001
1.000002
1.000003
1.000004
1.000005
1.000007
1.000008
1.000009
1.000010
1.000010
1.000008
1.000006
0.999994
0.999992
0.999990
0.999990
0.999990
0.999991
0.999993
0.999994
0.999996
0.999997
0.999998
0.999999
1.000000
1.000001
1.000002
1.000003
1.000004
1.000005
1.000007
1.000008
1.000010
1.000010
1.000010
1.000008
1.000006
0.999994
0.999992
0.999990
0.999990
0.999990
0.999991
0.999993
0.999994
0.999996
0.999997
0.999998
0.999999
1.000000
1.000001
1.000002
1.000003
1.000004
1.000005
1.000007
1.000009
1.000010
1.000010
1.000010
1.000008
1.000006
0.999994
0.999991
0.999990
0.999990
0.999990
0.999991
0.999993
0.999994
0.999996
0.999997
0.999998
0.999999
1.000000
1.000001
1.000002
1.000003
1.000004
1.000006
1.000007
1.000009
1.000010
1.000010
1.000010
1.000008
1.000006
0.999994
0.999991
0.999990
0.999990
0.999990
0.999991
0.999993
0.999994
0.999996
0.999997
0.999998
0.999999
1.000000
1.000001
1.000002
1.000003
1.000004
1.000006
1.000007
1.000009
1.000010
1.000010
1.000010
1.000008
1.000006
0.999994
0.999991
0.999990
0.999990
0.999990
0.999991
0.999993
0.999994
0.999996
0.999997
0.999998
0.999999
1.000000
1.000001
1.000002
1.000003
1.000004
1.000006
1.000007
1.000009
1.000010
1.000010
1.000010
1.000008
1.000006
0.999994
0.999992
0.999990
0.999990
0.999990
0.999991
0.999993
0.999994
0.999996
0.999997
0.999998
0.999999
1.000000
1.000001
1.000002
1.000003
1.000004
1.000005
1.000007
1.000009
1.000010
1.000010
1.000010
1.000008
1.000006
0.999994
0.999992
0.999990
0.999990
0.999990
0.999991
0.999993
0.999994
0.999996
0.999997
0.999998
0.999999
1.000000
1.000001
1.000002
1.000003
1.000004
1.000005
1.000007
1.000008
1.000010
1.000010
1.000010
1.000008
1.000006
0.999994
0.999992
0.999990
0.999990
0.999991
0.999992
0.999993
0.999995
0.999996
0.999997
0.999998
0.999999
1.000000
1.000001
1.000002
1.000003
1.000004
1.000005
1.000007
1.000008
1.000009
1.000010
1.000010
1.000008
1.000006
0.999994
0.999992
0.999991
0.999990
0.999991
0.999992
0.999993
0.999995
0.999996
0.999997
0.999998
0.999999
1.000000
1.000001
1.000002
1.000003
1.000004
1.000005
1.000007
1.000008
1.000009
1.000010
1.000009
1.000008
1.000006
0.999994
0.999992
0.999991
0.999991
0.999991
0.999992
0.999993
0.999995
0.999996
0.999998
0.999998
0.999999
1.000000
1.000001
1.000002
1.000002
1.000004
1.000005
1.000006
1.000008
1.000009
1.000009
1.000009
1.000008
1.000006
0.999995
0.999993
0.999992
0.999991
0.999992
0.999993
0.999994
0.999995
0.999997
0.999998
0.999999
0.999999
1.000000
1.000001
1.000001
1.000002
1.000003
1.000005
1.000006
1.000007
1.000008
1.000009
1.000008
1.000007
1.000005
0.999995
0.999993
0.999992
0.999992
0.999992
0.999993
0.999994
0.999996
0.999997
0.999998
0.999999
0.999999
1.000000
1.000001
1.000001
1.000002
1.000003
1.000004
1.000006
1.000007
1.000008
1.000008
1.000008
1.000007
1.000005
0.999996
0.999994
0.999993
0.999993
0.999993
0.999994
0.999995
0.999996
0.999997
0.999998
0.999999
0.999999
1.000000
1.000001
1.000001
1.000002
1.000003
1.000004
1.000005
1.000006
1.000007
1.000007
1.000007
1.000006
1.000004
0.999996
0.999995
0.999994
0.999994
0.999994
0.999995
0.999996
0.999997
0.999998
0.999998
0.999999
1.000000
1.000000
1.000000
1.000001
1.000002
1.000002
1.000003
1.000004
1.000005
1.000006
1.000006
1.000006
1.000005
1.000004
0.999997
0.999996
0.999995
0.999995
0.999995
0.999996
0.999997
0.999997
0.999998
0.999999
0.999999
1.000000
1.000000
1.000000
1.000001
1.000001
1.000002
1.000003
1.000003
1.000004
1.000005
1.000005
1.000005
1.000004
1.000003
0.999998
0.999997
0.999997
0.999997
0.999997
0.999997
0.999998
0.999998
0.999999
0.999999
0.999999
1.000000
1.000000
1.000000
1.000001
1.000001
1.000001
1.000002
1.000002
1.000003
1.000003
1.000003
1.000003
1.000003
1.000002
0.999995
0.999993
0.999992
0.999991
0.999992
0.999993
0.999994
0.999995
0.999996
0.999998
0.999999
0.999999
1.000000
1.000001
1.000002
1.000002
1.000004
1.000005
1.000006
1.000007
1.000008
1.000009
1.000008
1.000007
1.000005
0.999992
0.999990
0.999989
0.999989
0.999989
0.999990
0.999992
0.999993
0.999995
0.999997
0.999998
0.999999
1.000000
1.000001
1.000002
1.000003
1.000005
1.000007
1.000008
1.000010
1.000011
1.000011
1.000011
1.000010
1.000008
0.999991
0.999988
0.999986
0.999986
0.999986
0.999988
0.999990
0.999992
0.999994
0.999996
0.999997
0.999999
1.000000
1.000001
1.000003
1.000004
1.000006
1.000008
1.000010
1.000012
1.000014
1.000014
1.000014
1.000012
1.000009
0.999989
0.999986
0.999984
0.999984
0.999984
0.999986
0.999988
0.999990
0.999993
0.999995
0.999997
0.999999
1.000000
1.000001
1.000003
1.000005
1.000007
1.000010
1.000012
1.000014
1.000016
1.000016
1.000016
1.000014
1.000011
0.999988
0.999984
0.999982
0.999982
0.999982
0.999984
0.999986
0.999989
0.999992
0.999994
0.999997
0.999998
1.000000
1.000002
1.000003
1.000006
1.000008
1.000011
1.000013
1.000016
1.000018
1.000018
1.000018
1.000016
1.000012
0.999987
0.999983
0.999981
0.999980
0.999981
0.999983
0.999985
0.999988
0.999991
0.999994
0.999996
0.999998
1.000000
1.000002
1.000004
1.000006
1.000009
1.000012
1.000015
1.000017
1.000019
1.000020
1.000019
1.000017
1.000013
0.999986
0.999982
0.999980
0.999979
0.999980
0.999982
0.999984
0.999988
0.999991
0.999994
0.999996
0.999998
1.000000
1.000002
1.000004
1.000006
1.000009
1.000012
1.000015
1.000018
1.000020
1.000021
1.000020
1.000018
1.000014
0.999985
0.999981
0.999979
0.999978
0.999979
0.999981
0.999984
0.999987
0.999990
0.999993
0.999996
0.999998
1.000000
1.000002
1.000004
1.000007
1.000010
1.000013
1.000016
1.000019
1.000021
1.000022
1.000021
1.000019
1.000015
0.999985
0.999981
0.999978
0.999977
0.999978
0.999980
0.999983
0.999987
0.999990
0.999993
0.999996
0.999998
1.000000
1.000002
1.000004
1.000007
1.000010
1.000013
1.000016
1.000020
1.000022
1.000023
1.000022
1.000019
1.000015
0.999985
0.999980
0.999978
0.999977
0.999978
0.999980
0.999983
0.999987
0.999990
0.999993
0.999996
0.999998
1.000000
1.000002
1.000004
1.000007
1.000010
1.000013
1.000017
1.000020
1.000022
1.000023
1.000022
1.000020
1.000015
0.999984
0.999980
0.999977
0.999977
0.999978
0.999980
0.999983
0.999986
0.999990
0.999993
0.999996
0.999998
1.000000
1.000002
1.000004
1.000007
1.000010
1.000013
1.000017
1.000020
1.000022
1.000023
1.000023
1.000020
1.000016
0.999984
0.999980
0.999977
0.999976
0.999977
0.999980
0.999983
0.999986
0.999990
0.999993
0.999996
0.999998
1.000000
1.000002
1.000004
1.000007
1.000010
1.000014
1.000017
1.000020
1.000023
1.000023
1.000023
1.000020
1.000016
0.999984
0.999980
0.999977
0.999976
0.999977
0.999980
0.999983
0.999986
0.999990
0.999993
0.999996
0.999998
1.000000
1.000002
1.000004
1.000007
1.000010
1.000014
1.000017
1.000020
1.000023
1.000023
1.000023
1.000020
1.000016
0.999984
0.999980
0.999977
0.999976
0.999977
0.999980
0.999983
0.999986
0.999990
0.999993
0.999996
0.999998
1.000000
1.000002
1.000004
1.000007
1.000010
1.000014
1.000017
1.000020
1.000023
1.000023
1.000023
1.000020
1.000016
0.999984
0.999980
0.999977
0.999977
0.999978
0.999980
0.999983
0.999986
0.999990
0.999993
0.999996
0.999998
1.000000
1.000002
1.000004
1.000007
1.000010
1.000013
1.000017
1.000020
1.000022
1.000023
1.000023
1.000020
1.000016
0.999985
0.999980
0.999978
0.999977
0.999978
0.999980
0.999983
0.999987
0.999990
0.999993
0.999996
0.999998
1.000000
1.000002
1.000004
1.000007
1.000010
1.000013
1.000017
1.000020
1.000022
1.000023
1.000022
1.000020
1.000015
0.999985
0.999981
0.999978
0.999977
0.999978
0.999980
0.999983
0.999987
0.999990
0.999993
0.999996
0.999998
1.000000
1.000002
1.000004
1.000007
1.000010
1.000013
1.000016
1.000020
1.000022
1.000023
1.000022
1.000019
1.000015
0.999985
0.999981
0.999979
0.999978
0.999979
0.999981
0.999984
0.999987
0.999990
0.999993
0.999996
0.999998
1.000000
1.000002
1.000004
1.000007
1.000010
1.000013
1.000016
1.000019
1.000021
1.000022
1.000021
1.000019
1.000015
0.999986
0.999982
0.999980
0.999979
0.999980
0.999982
0.999984
0.999988
0.999991
0.999994
0.999996
0.999998
1.000000
1.000002
1.000004
1.000006
1.000009
1.000012
1.000015
1.000018
1.000020
1.000021
1.000020
1.000018
1.000014
0.999987
0.999983
0.999981
0.999980
0.999981
0.999983
0.999985
0.999988
0.999991
0.999994
0.999996
0.999998
1.000000
1.000002
1.000004
1.000006
1.000009
1.000012
1.000015
1.000017
1.000019
1.000020
1.000019
1.000017
1.000013
0.999988
0.999984
0.999982
0.999982
0.999982
0.999984
0.999986
0.999989
0.999992
0.999994
0.999997
0.999998
1.000000
1.000002
1.000003
1.000006
1.000008
1.000011
1.000013
1.000016
1.000018
1.000018
1.000018
1.000016
1.000012
0.999989
0.999986
0.999984
0.999984
0.999984
0.999986
0.999988
0.999990
0.999993
0.999995
0.999997
0.999999
1.000000
1.000001
1.000003
1.000005
1.000007
1.000010
1.000012
1.000014
1.000016
1.000016
1.000016
1.000014
1.000011
0.999991
0.999988
0.999986
0.999986
0.999986
0.999988
0.999990
0.999992
0.999994
0.999996
0.999997
0.999999
1.000000
1.000001
1.000003
1.000004
1.000006
1.000008
1.000010
1.000012
1.000014
1.000014
1.000014
1.000012
1.000009
0.999992
0.999990
0.999989
0.999989
0.999989
0.999990
0.999992
0.999993
0.999995
0.999997
0.999998
0.999999
1.000000
1.000001
1.000002
1.000003
1.000005
1.000007
1.000008
1.000010
1.000011
1.000011
1.000011
1.000010
1.000008
0.999995
0.999993
0.999992
0.999991
0.999992
0.999993
0.999994
0.999995
0.999996
0.999998
0.999999
0.999999
1.000000
1.000001
1.000002
1.000002
1.000004
1.000005
1.000006
1.000007
1.000008
1.000009
1.000008
1.000007
1.000005
0.999985
0.999980
0.999978
0.999977
0.999978
0.999980
0.999983
0.999986
0.999990
0.999993
0.999996
0.999998
1.000000
1.000002
1.000004
1.000007
1.000010
1.000014
1.000017
1.000020
1.000022
1.000023
1.000022
1.000020
1.000015
0.999980
0.999975
0.999971
0.999970
0.999971
0.999974
0.999978
0.999982
0.999987
0.999991
0.999994
0.999997
1.000000
1.000003
1.000006
1.000009
1.000013
1.000018
1.000022
1.000026
1.000029
1.000030
1.000029
1.000025
1.000020
0.999975
0.999969
0.999965
0.999964
0.999965
0.999969
0.999973
0.999978
0.999983
0.999988
0.999993
0.999996
1.000000
1.000004
1.000007
1.000012
1.000016
1.000022
1.000027
1.000031
1.000035
1.000036
1.000035
1.000031
1.000025
0.999971
0.999964
0.999960
0.999959
0.999960
0.999964
0.999969
0.999975
0.999981
0.999986
0.999991
0.999996
1.000000
1.000004
1.000009
1.000014
1.000019
1.000025
1.000031
1.000036
1.000040
1.000041
1.000040
1.000036
1.000029
0.999968
0.999960
0.999955
0.999954
0.999955
0.999960
0.999965
0.999972
0.999979
0.999985
0.999990
0.999995
1.000000
1.000005
1.000010
1.000015
1.000021
1.000028
1.000035
1.000040
1.000044
1.000046
1.000045
1.000040
1.000032
0.999965
0.999957
0.999952
0.999950
0.999952
0.999956
0.999962
0.999970
0.999977
0.999984
0.999990
0.999995
1.000000
1.000005
1.000010
1.000016
1.000023
1.000030
1.000037
1.000044
1.000048
1.000050
1.000048
1.000043
1.000035
0.999963
0.999954
0.999949
0.999947
0.999949
0.999954
0.999960
0.999968
0.999975
0.999983
0.999989
0.999995
1.000000
1.000005
1.000011
1.000017
1.000024
1.000032
1.000040
1.000046
1.000051
1.000053
1.000051
1.000046
1.000037
0.999961
0.999952
0.999947
0.999945
0.999947
0.999952
0.999959
0.999966
0.999974
0.999982
0.999989
0.999994
1.000000
1.000005
1.000011
1.000018
1.000025
1.000033
1.000041
1.000048
1.000053
1.000055
1.000053
1.000048
1.000039
0.999960
0.999951
0.999945
0.999943
0.999945
0.999950
0.999957
0.999965
0.999974
0.999981
0.999988
0.999994
1.000000
1.000006
1.000012
1.000018
1.000026
1.000034
1.000042
1.000050
1.000055
1.000057
1.000055
1.000049
1.000040
0.999959
0.999950
0.999944
0.999942
0.999944
0.999949
0.999957
0.999965
0.999973
0.999981
0.999988
0.999994
1.000000
1.000006
1.000012
1.000019
1.000027
1.000035
1.000043
1.000050
1.000056
1.000058
1.000056
1.000050
1.000041
0.999959
0.999950
0.999943
0.999942
0.999944
0.999949
0.999956
0.999964
0.999973
0.999981
0.999988
0.999994
1.000000
1.000006
1.000012
1.000019
1.000027
1.000035
1.000044
1.000051
1.000056
1.000058
1.000057
1.000051
1.000041
0.999959
0.999949
0.999943
0.999941
0.999943
0.999948
0.999956
0.999964
0.999973
0.999981
0.999988
0.999994
1.000000
1.000006
1.000012
1.000019
1.000027
1.000035
1.000044
1.000051
1.000057
1.000059
1.000057
1.000051
1.000041
0.999959
0.999949
0.999943
0.999941
0.999943
0.999948
0.999956
0.999964
0.999973
0.999981
0.999988
0.999994
1.000000
1.000006
1.000012
1.000019
1.000027
1.000036
1.000044
1.000051
1.000057
1.000059
1.000057
1.000051
1.000041
0.999959
0.999949
0.999943
0.999941
0.999943
0.999948
0.999956
0.999964
0.999973
0.999981
0.999988
0.999994
1.000000
1.000006
1.000012
1.000019
1.000027
1.000035
1.000044
1.000051
1.000057
1.000059
1.000057
1.000051
1.000041
0.999959
0.999950
0.999943
0.999942
0.999944
0.999949
0.999956
0.999964
0.999973
0.999981
0.999988
0.999994
1.000000
1.000006
1.000012
1.000019
1.000027
1.000035
1.000044
1.000051
1.000056
1.000058
1.000057
1.000051
1.000041
0.999959
0.999950
0.999944
0.999942
0.999944
0.999949
0.999957
0.999965
0.999973
0.999981
0.999988
0.999994
1.000000
1.000006
1.000012
1.000019
1.000027
1.000035
1.000043
1.000050
1.000056
1.000058
1.000056
1.000050
1.000041
0.999960
0.999951
0.999945
0.999943
0.999945
0.999950
0.999957
0.999965
0.999974
0.999981
0.999988
0.999994
1.000000
1.000006
1.000012
1.000018
1.000026
1.000034
1.000042
1.000050
1.000055
1.000057
1.000055
1.000049
1.000040
0.999961
0.999952
0.999947
0.999945
0.999947
0.999952
0.999959
0.999966
0.999974
0.999982
0.999989
0.999994
1.000000
1.000005
1.000011
1.000018
1.000025
1.000033
1.000041
1.000048
1.000053
1.000055
1.000053
1.000048
1.000039
0.999963
0.999954
0.999949
0.999947
0.999949
0.999954
0.999960
0.999968
0.999975
0.999983
0.999989
0.999995
1.000000
1.000005
1.000011
1.000017
1.000024
1.000032
1.000040
1.000046
1.000051
1.000053
1.000051
1.000046
1.000037
0.999965
0.999957
0.999952
0.999950
0.999952
0.999956
0.999962
0.999970
0.999977
0.999984
0.999990
0.999995
1.000000
1.000005
1.000010
1.000016
1.000023
1.000030
1.000037
1.000044
1.000048
1.000050
1.000048
1.000043
1.000035
0.999968
0.999960
0.999955
0.999954
0.999955
0.999960
0.999965
0.999972
0.999979
0.999985
0.999990
0.999995
1.000000
1.000005
1.000010
1.000015
1.000021
1.000028
1.000035
1.000040
1.000044
1.000046
1.000045
1.000040
1.000032
0.999971
0.999964
0.999960
0.999959
0.999960
0.999964
0.999969
0.999975
0.999981
0.999986
0.999991
0.999996
1.000000
1.000004
1.000009
1.000014
1.000019
1.000025
1.000031
1.000036
1.000040
1.000041
1.000040
1.000036
1.000029
0.999975
0.999969
0.999965
0.999964
0.999965
0.999969
0.999973
0.999978
0.999983
0.999988
0.999993
0.999996
1.000000
1.000004
1.000007
1.000012
1.000016
1.000022
1.000027
1.000031
1.000035
1.000036
1.000035
1.000031
1.000025
0.999980
0.999975
0.999971
0.999970
0.999971
0.999974
0.999978
0.999982
0.999987
0.999991
0.999994
0.999997
1.000000
1.000003
1.000006
1.000009
1.000013
1.000018
1.000022
1.000026
1.000029
1.000030
1.000029
1.000025
1.000020
0.999985
0.999980
0.999978
0.999977
0.999978
0.999980
0.999983
0.999986
0.999990
0.999993
0.999996
0.999998
1.000000
1.000002
1.000004
1.000007
1.000010
1.000014
1.000017
1.000020
1.000022
1.000023
1.000022
1.000020
1.000015
0.999961
0.999951
0.999945
0.999943
0.999945
0.999951
0.999958
0.999966
0.999974
0.999982
0.999988
0.999994
1.000000
1.000006
1.000012
1.000018
1.000026
1.000034
1.000042
1.000049
1.000055
1.000057
1.000055
1.000049
1.000039
0.999950
0.999939
0.999932
0.999930
0.999932
0.999938
0.999947
0.999957
0.999967
0.999976
0.999985
0.999993
1.000000
1.000007
1.000015
1.000024
1.000033
1.000043
1.000053
1.000062
1.000068
1.000070
1.000068
1.000061
1.000051
0.999939
0.999927
0.999919
0.999917
0.999919
0.999926
0.999936
0.999948
0.999960
0.999971
0.999982
0.999991
1.000000
1.000009
1.000018
1.000029
1.000040
1.000052
1.000064
1.000074
1.000081
1.000084
1.000081
1.000073
1.000061
0.999930
0.999916
0.999908
0.999905
0.999908
0.999916
0.999927
0.999940
0.999954
0.999967
0.999979
0.999990
1.000000
1.000010
1.000021
1.000033
1.000046
1.000060
1.000073
1.000084
1.000092
1.000095
1.000093
1.000084
1.000070
0.999923
0.999908
0.999898
0.999895
0.999898
0.999907
0.999919
0.999934
0.999948
0.999963
0.999976
0.999988
1.000000
1.000011
1.000024
1.000037
1.000051
1.000066
1.000081
1.000093
1.000102
1.000105
1.000103
1.000093
1.000078
0.999917
0.999900
0.999890
0.999887
0.999890
0.999900
0.999913
0.999928
0.999944
0.999960
0.999974
0.999987
1.000000
1.000012
1.000025
1.000040
1.000055
1.000071
1.000087
1.000101
1.000110
1.000114
1.000111
1.000100
1.000084
0.999912
0.999895
0.999884
0.999880
0.999884
0.999894
0.999908
0.999924
0.999941
0.999957
0.999973
0.999987
1.000000
1.000013
1.000027
1.000042
1.000058
1.000076
1.000092
1.000106
1.000116
1.000120
1.000117
1.000106
1.000088
0.999908
0.999890
0.999879
0.999875
0.999879
0.999889
0.999904
0.999921
0.999939
0.999956
0.999972
0.999986
1.000000
1.000013
1.000028
1.000044
1.000061
1.000079
1.000096
1.000111
1.000121
1.000125
1.000122
1.000110
1.000092
0.999906
0.999887
0.999875
0.999871
0.999875
0.999886
0.999901
0.999919
0.999937
0.999954
0.999971
0.999986
1.000000
1.000014
1.000029
1.000045
1.000063
1.000081
1.000099
1.000114
1.000125
1.000129
1.000125
1.000114
1.000095
0.999904
0.999885
0.999873
0.999869
0.999873
0.999884
0.999899
0.999917
0.999936
0.999954
0.999970
0.999985
1.000000
1.000014
1.000029
1.000046
1.000064
1.000082
1.000101
1.000116
1.000127
1.000132
1.000128
1.000116
1.000097
0.999903
0.999883
0.999871
0.999867
0.999871
0.999882
0.999898
0.999916
0.999935
0.999953
0.999970
0.999985
1.000000
1.000014
1.000029
1.000046
1.000064
1.000083
1.000102
1.000118
1.000129
1.000133
1.000130
1.000117
1.000098
0.999902
0.999882
0.999870
0.999866
0.999870
0.999881
0.999897
0.999915
0.999934
0.999953
0.999970
0.999985
1.000000
1.000014
1.000030
1.000046
1.000065
1.000084
1.000102
1.000118
1.000130
1.000134
1.000131
1.000118
1.000098
0.999902
0.999882
0.999870
0.999866
0.999870
0.999881
0.999897
0.999915
0.999934
0.999953
0.999970
0.999985
1.000000
1.000014
1.000030
1.000047
1.000065
1.000084
1.000103
1.000119
1.000130
1.000135
1.000131
1.000118
1.000099
0.999902
0.999882
0.999870
0.999866
0.999870
0.999881
0.999897
0.999915
0.999934
0.999953
0.999970
0.999985
1.000000
1.000014
1.000030