# vtk DataFile Version 2.0
generated by CFD-lab course output 
ASCII

DATASET STRUCTURED_GRID
DIMENSIONS  25 25 25 
POINTS 15625 float

1 1 1
2 1 1
3 1 1
4 1 1
5 1 1
6 1 1
7 1 1
8 1 1
9 1 1
10 1 1
11 1 1
12 1 1
13 1 1
14 1 1
15 1 1
16 1 1
17 1 1
18 1 1
19 1 1
20 1 1
21 1 1
22 1 1
23 1 1
24 1 1
25 1 1
1 2 1
2 2 1
3 2 1
4 2 1
5 2 1
6 2 1
7 2 1
8 2 1
9 2 1
10 2 1
11 2 1
12 2 1
13 2 1
14 2 1
15 2 1
16 2 1
17 2 1
18 2 1
19 2 1
20 2 1
21 2 1
22 2 1
23 2 1
24 2 1
25 2 1
1 3 1
2 3 1
3 3 1
4 3 1
5 3 1
6 3 1
7 3 1
8 3 1
9 3 1
10 3 1
11 3 1
12 3 1
13 3 1
14 3 1
15 3 1
16 3 1
17 3 1
18 3 1
19 3 1
20 3 1
21 3 1
22 3 1
23 3 1
24 3 1
25 3 1
1 4 1
2 4 1
3 4 1
4 4 1
5 4 1
6 4 1
7 4 1
8 4 1
9 4 1
10 4 1
11 4 1
12 4 1
13 4 1
14 4 1
15 4 1
16 4 1
17 4 1
18 4 1
19 4 1
20 4 1
21 4 1
22 4 1
23 4 1
24 4 1
25 4 1
1 5 1
2 5 1
3 5 1
4 5 1
5 5 1
6 5 1
7 5 1
8 5 1
9 5 1
10 5 1
11 5 1
12 5 1
13 5 1
14 5 1
15 5 1
16 5 1
17 5 1
18 5 1
19 5 1
20 5 1
21 5 1
22 5 1
23 5 1
24 5 1
25 5 1
1 6 1
2 6 1
3 6 1
4 6 1
5 6 1
6 6 1
7 6 1
8 6 1
9 6 1
10 6 1
11 6 1
12 6 1
13 6 1
14 6 1
15 6 1
16 6 1
17 6 1
18 6 1
19 6 1
20 6 1
21 6 1
22 6 1
23 6 1
24 6 1
25 6 1
1 7 1
2 7 1
3 7 1
4 7 1
5 7 1
6 7 1
7 7 1
8 7 1
9 7 1
10 7 1
11 7 1
12 7 1
13 7 1
14 7 1
15 7 1
16 7 1
17 7 1
18 7 1
19 7 1
20 7 1
21 7 1
22 7 1
23 7 1
24 7 1
25 7 1
1 8 1
2 8 1
3 8 1
4 8 1
5 8 1
6 8 1
7 8 1
8 8 1
9 8 1
10 8 1
11 8 1
12 8 1
13 8 1
14 8 1
15 8 1
16 8 1
17 8 1
18 8 1
19 8 1
20 8 1
21 8 1
22 8 1
23 8 1
24 8 1
25 8 1
1 9 1
2 9 1
3 9 1
4 9 1
5 9 1
6 9 1
7 9 1
8 9 1
9 9 1
10 9 1
11 9 1
12 9 1
13 9 1
14 9 1
15 9 1
16 9 1
17 9 1
18 9 1
19 9 1
20 9 1
21 9 1
22 9 1
23 9 1
24 9 1
25 9 1
1 10 1
2 10 1
3 10 1
4 10 1
5 10 1
6 10 1
7 10 1
8 10 1
9 10 1
10 10 1
11 10 1
12 10 1
13 10 1
14 10 1
15 10 1
16 10 1
17 10 1
18 10 1
19 10 1
20 10 1
21 10 1
22 10 1
23 10 1
24 10 1
25 10 1
1 11 1
2 11 1
3 11 1
4 11 1
5 11 1
6 11 1
7 11 1
8 11 1
9 11 1
10 11 1
11 11 1
12 11 1
13 11 1
14 11 1
15 11 1
16 11 1
17 11 1
18 11 1
19 11 1
20 11 1
21 11 1
22 11 1
23 11 1
24 11 1
25 11 1
1 12 1
2 12 1
3 12 1
4 12 1
5 12 1
6 12 1
7 12 1
8 12 1
9 12 1
10 12 1
11 12 1
12 12 1
13 12 1
14 12 1
15 12 1
16 12 1
17 12 1
18 12 1
19 12 1
20 12 1
21 12 1
22 12 1
23 12 1
24 12 1
25 12 1
1 13 1
2 13 1
3 13 1
4 13 1
5 13 1
6 13 1
7 13 1
8 13 1
9 13 1
10 13 1
11 13 1
12 13 1
13 13 1
14 13 1
15 13 1
16 13 1
17 13 1
18 13 1
19 13 1
20 13 1
21 13 1
22 13 1
23 13 1
24 13 1
25 13 1
1 14 1
2 14 1
3 14 1
4 14 1
5 14 1
6 14 1
7 14 1
8 14 1
9 14 1
10 14 1
11 14 1
12 14 1
13 14 1
14 14 1
15 14 1
16 14 1
17 14 1
18 14 1
19 14 1
20 14 1
21 14 1
22 14 1
23 14 1
24 14 1
25 14 1
1 15 1
2 15 1
3 15 1
4 15 1
5 15 1
6 15 1
7 15 1
8 15 1
9 15 1
10 15 1
11 15 1
12 15 1
13 15 1
14 15 1
15 15 1
16 15 1
17 15 1
18 15 1
19 15 1
20 15 1
21 15 1
22 15 1
23 15 1
24 15 1
25 15 1
1 16 1
2 16 1
3 16 1
4 16 1
5 16 1
6 16 1
7 16 1
8 16 1
9 16 1
10 16 1
11 16 1
12 16 1
13 16 1
14 16 1
15 16 1
16 16 1
17 16 1
18 16 1
19 16 1
20 16 1
21 16 1
22 16 1
23 16 1
24 16 1
25 16 1
1 17 1
2 17 1
3 17 1
4 17 1
5 17 1
6 17 1
7 17 1
8 17 1
9 17 1
10 17 1
11 17 1
12 17 1
13 17 1
14 17 1
15 17 1
16 17 1
17 17 1
18 17 1
19 17 1
20 17 1
21 17 1
22 17 1
23 17 1
24 17 1
25 17 1
1 18 1
2 18 1
3 18 1
4 18 1
5 18 1
6 18 1
7 18 1
8 18 1
9 18 1
10 18 1
11 18 1
12 18 1
13 18 1
14 18 1
15 18 1
16 18 1
17 18 1
18 18 1
19 18 1
20 18 1
21 18 1
22 18 1
23 18 1
24 18 1
25 18 1
1 19 1
2 19 1
3 19 1
4 19 1
5 19 1
6 19 1
7 19 1
8 19 1
9 19 1
10 19 1
11 19 1
12 19 1
13 19 1
14 19 1
15 19 1
16 19 1
17 19 1
18 19 1
19 19 1
20 19 1
21 19 1
22 19 1
23 19 1
24 19 1
25 19 1
1 20 1
2 20 1
3 20 1
4 20 1
5 20 1
6 20 1
7 20 1
8 20 1
9 20 1
10 20 1
11 20 1
12 20 1
13 20 1
14 20 1
15 20 1
16 20 1
17 20 1
18 20 1
19 20 1
20 20 1
21 20 1
22 20 1
23 20 1
24 20 1
25 20 1
1 21 1
2 21 1
3 21 1
4 21 1
5 21 1
6 21 1
7 21 1
8 21 1
9 21 1
10 21 1
11 21 1
12 21 1
13 21 1
14 21 1
15 21 1
16 21 1
17 21 1
18 21 1
19 21 1
20 21 1
21 21 1
22 21 1
23 21 1
24 21 1
25 21 1
1 22 1
2 22 1
3 22 1
4 22 1
5 22 1
6 22 1
7 22 1
8 22 1
9 22 1
10 22 1
11 22 1
12 22 1
13 22 1
14 22 1
15 22 1
16 22 1
17 22 1
18 22 1
19 22 1
20 22 1
21 22 1
22 22 1
23 22 1
24 22 1
25 22 1
1 23 1
2 23 1
3 23 1
4 23 1
5 23 1
6 23 1
7 23 1
8 23 1
9 23 1
10 23 1
11 23 1
12 23 1
13 23 1
14 23 1
15 23 1
16 23 1
17 23 1
18 23 1
19 23 1
20 23 1
21 23 1
22 23 1
23 23 1
24 23 1
25 23 1
1 24 1
2 24 1
3 24 1
4 24 1
5 24 1
6 24 1
7 24 1
8 24 1
9 24 1
10 24 1
11 24 1
12 24 1
13 24 1
14 24 1
15 24 1
16 24 1
17 24 1
18 24 1
19 24 1
20 24 1
21 24 1
22 24 1
23 24 1
24 24 1
25 24 1
1 25 1
2 25 1
3 25 1
4 25 1
5 25 1
6 25 1
7 25 1
8 25 1
9 25 1
10 25 1
11 25 1
12 25 1
13 25 1
14 25 1
15 25 1
16 25 1
17 25 1
18 25 1
19 25 1
20 25 1
21 25 1
22 25 1
23 25 1
24 25 1
25 25 1
1 1 2
2 1 2
3 1 2
4 1 2
5 1 2
6 1 2
7 1 2
8 1 2
9 1 2
10 1 2
11 1 2
12 1 2
13 1 2
14 1 2
15 1 2
16 1 2
17 1 2
18 1 2
19 1 2
20 1 2
21 1 2
22 1 2
23 1 2
24 1 2
25 1 2
1 2 2
2 2 2
3 2 2
4 2 2
5 2 2
6 2 2
7 2 2
8 2 2
9 2 2
10 2 2
11 2 2
12 2 2
13 2 2
14 2 2
15 2 2
16 2 2
17 2 2
18 2 2
19 2 2
20 2 2
21 2 2
22 2 2
23 2 2
24 2 2
25 2 2
1 3 2
2 3 2
3 3 2
4 3 2
5 3 2
6 3 2
7 3 2
8 3 2
9 3 2
10 3 2
11 3 2
12 3 2
13 3 2
14 3 2
15 3 2
16 3 2
17 3 2
18 3 2
19 3 2
20 3 2
21 3 2
22 3 2
23 3 2
24 3 2
25 3 2
1 4 2
2 4 2
3 4 2
4 4 2
5 4 2
6 4 2
7 4 2
8 4 2
9 4 2
10 4 2
11 4 2
12 4 2
13 4 2
14 4 2
15 4 2
16 4 2
17 4 2
18 4 2
19 4 2
20 4 2
21 4 2
22 4 2
23 4 2
24 4 2
25 4 2
1 5 2
2 5 2
3 5 2
4 5 2
5 5 2
6 5 2
7 5 2
8 5 2
9 5 2
10 5 2
11 5 2
12 5 2
13 5 2
14 5 2
15 5 2
16 5 2
17 5 2
18 5 2
19 5 2
20 5 2
21 5 2
22 5 2
23 5 2
24 5 2
25 5 2
1 6 2
2 6 2
3 6 2
4 6 2
5 6 2
6 6 2
7 6 2
8 6 2
9 6 2
10 6 2
11 6 2
12 6 2
13 6 2
14 6 2
15 6 2
16 6 2
17 6 2
18 6 2
19 6 2
20 6 2
21 6 2
22 6 2
23 6 2
24 6 2
25 6 2
1 7 2
2 7 2
3 7 2
4 7 2
5 7 2
6 7 2
7 7 2
8 7 2
9 7 2
10 7 2
11 7 2
12 7 2
13 7 2
14 7 2
15 7 2
16 7 2
17 7 2
18 7 2
19 7 2
20 7 2
21 7 2
22 7 2
23 7 2
24 7 2
25 7 2
1 8 2
2 8 2
3 8 2
4 8 2
5 8 2
6 8 2
7 8 2
8 8 2
9 8 2
10 8 2
11 8 2
12 8 2
13 8 2
14 8 2
15 8 2
16 8 2
17 8 2
18 8 2
19 8 2
20 8 2
21 8 2
22 8 2
23 8 2
24 8 2
25 8 2
1 9 2
2 9 2
3 9 2
4 9 2
5 9 2
6 9 2
7 9 2
8 9 2
9 9 2
10 9 2
11 9 2
12 9 2
13 9 2
14 9 2
15 9 2
16 9 2
17 9 2
18 9 2
19 9 2
20 9 2
21 9 2
22 9 2
23 9 2
24 9 2
25 9 2
1 10 2
2 10 2
3 10 2
4 10 2
5 10 2
6 10 2
7 10 2
8 10 2
9 10 2
10 10 2
11 10 2
12 10 2
13 10 2
14 10 2
15 10 2
16 10 2
17 10 2
18 10 2
19 10 2
20 10 2
21 10 2
22 10 2
23 10 2
24 10 2
25 10 2
1 11 2
2 11 2
3 11 2
4 11 2
5 11 2
6 11 2
7 11 2
8 11 2
9 11 2
10 11 2
11 11 2
12 11 2
13 11 2
14 11 2
15 11 2
16 11 2
17 11 2
18 11 2
19 11 2
20 11 2
21 11 2
22 11 2
23 11 2
24 11 2
25 11 2
1 12 2
2 12 2
3 12 2
4 12 2
5 12 2
6 12 2
7 12 2
8 12 2
9 12 2
10 12 2
11 12 2
12 12 2
13 12 2
14 12 2
15 12 2
16 12 2
17 12 2
18 12 2
19 12 2
20 12 2
21 12 2
22 12 2
23 12 2
24 12 2
25 12 2
1 13 2
2 13 2
3 13 2
4 13 2
5 13 2
6 13 2
7 13 2
8 13 2
9 13 2
10 13 2
11 13 2
12 13 2
13 13 2
14 13 2
15 13 2
16 13 2
17 13 2
18 13 2
19 13 2
20 13 2
21 13 2
22 13 2
23 13 2
24 13 2
25 13 2
1 14 2
2 14 2
3 14 2
4 14 2
5 14 2
6 14 2
7 14 2
8 14 2
9 14 2
10 14 2
11 14 2
12 14 2
13 14 2
14 14 2
15 14 2
16 14 2
17 14 2
18 14 2
19 14 2
20 14 2
21 14 2
22 14 2
23 14 2
24 14 2
25 14 2
1 15 2
2 15 2
3 15 2
4 15 2
5 15 2
6 15 2
7 15 2
8 15 2
9 15 2
10 15 2
11 15 2
12 15 2
13 15 2
14 15 2
15 15 2
16 15 2
17 15 2
18 15 2
19 15 2
20 15 2
21 15 2
22 15 2
23 15 2
24 15 2
25 15 2
1 16 2
2 16 2
3 16 2
4 16 2
5 16 2
6 16 2
7 16 2
8 16 2
9 16 2
10 16 2
11 16 2
12 16 2
13 16 2
14 16 2
15 16 2
16 16 2
17 16 2
18 16 2
19 16 2
20 16 2
21 16 2
22 16 2
23 16 2
24 16 2
25 16 2
1 17 2
2 17 2
3 17 2
4 17 2
5 17 2
6 17 2
7 17 2
8 17 2
9 17 2
10 17 2
11 17 2
12 17 2
13 17 2
14 17 2
15 17 2
16 17 2
17 17 2
18 17 2
19 17 2
20 17 2
21 17 2
22 17 2
23 17 2
24 17 2
25 17 2
1 18 2
2 18 2
3 18 2
4 18 2
5 18 2
6 18 2
7 18 2
8 18 2
9 18 2
10 18 2
11 18 2
12 18 2
13 18 2
14 18 2
15 18 2
16 18 2
17 18 2
18 18 2
19 18 2
20 18 2
21 18 2
22 18 2
23 18 2
24 18 2
25 18 2
1 19 2
2 19 2
3 19 2
4 19 2
5 19 2
6 19 2
7 19 2
8 19 2
9 19 2
10 19 2
11 19 2
12 19 2
13 19 2
14 19 2
15 19 2
16 19 2
17 19 2
18 19 2
19 19 2
20 19 2
21 19 2
22 19 2
23 19 2
24 19 2
25 19 2
1 20 2
2 20 2
3 20 2
4 20 2
5 20 2
6 20 2
7 20 2
8 20 2
9 20 2
10 20 2
11 20 2
12 20 2
13 20 2
14 20 2
15 20 2
16 20 2
17 20 2
18 20 2
19 20 2
20 20 2
21 20 2
22 20 2
23 20 2
24 20 2
25 20 2
1 21 2
2 21 2
3 21 2
4 21 2
5 21 2
6 21 2
7 21 2
8 21 2
9 21 2
10 21 2
11 21 2
12 21 2
13 21 2
14 21 2
15 21 2
16 21 2
17 21 2
18 21 2
19 21 2
20 21 2
21 21 2
22 21 2
23 21 2
24 21 2
25 21 2
1 22 2
2 22 2
3 22 2
4 22 2
5 22 2
6 22 2
7 22 2
8 22 2
9 22 2
10 22 2
11 22 2
12 22 2
13 22 2
14 22 2
15 22 2
16 22 2
17 22 2
18 22 2
19 22 2
20 22 2
21 22 2
22 22 2
23 22 2
24 22 2
25 22 2
1 23 2
2 23 2
3 23 2
4 23 2
5 23 2
6 23 2
7 23 2
8 23 2
9 23 2
10 23 2
11 23 2
12 23 2
13 23 2
14 23 2
15 23 2
16 23 2
17 23 2
18 23 2
19 23 2
20 23 2
21 23 2
22 23 2
23 23 2
24 23 2
25 23 2
1 24 2
2 24 2
3 24 2
4 24 2
5 24 2
6 24 2
7 24 2
8 24 2
9 24 2
10 24 2
11 24 2
12 24 2
13 24 2
14 24 2
15 24 2
16 24 2
17 24 2
18 24 2
19 24 2
20 24 2
21 24 2
22 24 2
23 24 2
24 24 2
25 24 2
1 25 2
2 25 2
3 25 2
4 25 2
5 25 2
6 25 2
7 25 2
8 25 2
9 25 2
10 25 2
11 25 2
12 25 2
13 25 2
14 25 2
15 25 2
16 25 2
17 25 2
18 25 2
19 25 2
20 25 2
21 25 2
22 25 2
23 25 2
24 25 2
25 25 2
1 1 3
2 1 3
3 1 3
4 1 3
5 1 3
6 1 3
7 1 3
8 1 3
9 1 3
10 1 3
11 1 3
12 1 3
13 1 3
14 1 3
15 1 3
16 1 3
17 1 3
18 1 3
19 1 3
20 1 3
21 1 3
22 1 3
23 1 3
24 1 3
25 1 3
1 2 3
2 2 3
3 2 3
4 2 3
5 2 3
6 2 3
7 2 3
8 2 3
9 2 3
10 2 3
11 2 3
12 2 3
13 2 3
14 2 3
15 2 3
16 2 3
17 2 3
18 2 3
19 2 3
20 2 3
21 2 3
22 2 3
23 2 3
24 2 3
25 2 3
1 3 3
2 3 3
3 3 3
4 3 3
5 3 3
6 3 3
7 3 3
8 3 3
9 3 3
10 3 3
11 3 3
12 3 3
13 3 3
14 3 3
15 3 3
16 3 3
17 3 3
18 3 3
19 3 3
20 3 3
21 3 3
22 3 3
23 3 3
24 3 3
25 3 3
1 4 3
2 4 3
3 4 3
4 4 3
5 4 3
6 4 3
7 4 3
8 4 3
9 4 3
10 4 3
11 4 3
12 4 3
13 4 3
14 4 3
15 4 3
16 4 3
17 4 3
18 4 3
19 4 3
20 4 3
21 4 3
22 4 3
23 4 3
24 4 3
25 4 3
1 5 3
2 5 3
3 5 3
4 5 3
5 5 3
6 5 3
7 5 3
8 5 3
9 5 3
10 5 3
11 5 3
12 5 3
13 5 3
14 5 3
15 5 3
[...]
POINT_DATA 15625 
SCALARS density float 1 
LOOKUP_TABLE default 
0.999592
0.999495
0.999437
0.999411
0.999411
0.999434
0.999478
0.999539
0.999614
0.999700
0.999795
0.999895
0.999998
1.000101
1.000202
1.000298
1.000386
1.000463
1.000526
1.000571
1.000596
1.000597
1.000570
1.000512
1.000413
0.999488
0.999387
0.999322
0.999291
0.999291
0.999319
0.999370
0.999443
0.999533
0.999637
0.999751
0.999872
0.999997
1.000123
1.000245
1.000361
1.000467
1.000560
1.000634
1.000688
1.000717
1.000718
1.000688
1.000621
1.000519
0.999407
0.999296
0.999224
0.999191
0.999192
0.999223
0.999281
0.999363
0.999465
0.999584
0.999714
0.999853
0.999997
1.000141
1.000282
1.000414
1.000535
1.000640
1.000725
1.000785
1.000819
1.000820
1.000787
1.000715
1.000602
0.999340
0.999219
0.999142
0.999107
0.999108
0.999142
0.999206
0.999296
0.999409
0.999539
0.999684
0.999838
0.999997
1.000156
1.000312
1.000459
1.000592
1.000708
1.000801
1.000868
1.000904
1.000906
1.000871
1.000793
1.000670
0.999283
0.999153
0.999071
0.999034
0.999036
0.999073
0.999141
0.999238
0.999359
0.999500
0.999657
0.999824
0.999997
1.000170
1.000338
1.000497
1.000642
1.000766
1.000867
1.000938
1.000978
1.000981
1.000943
1.000860
1.000728
0.999234
0.999097
0.999010
0.998971
0.998973
0.999012
0.999085
0.999188
0.999317
0.999467
0.999634
0.999812
0.999996
1.000181
1.000361
1.000531
1.000685
1.000817
1.000924
1.001000
1.001042
1.001045
1.001006
1.000918
1.000778
0.999193
0.999049
0.998958
0.998917
0.998919
0.998960
0.999037
0.999145
0.999280
0.999438
0.999614
0.999802
0.999996
1.000191
1.000381
1.000560
1.000722
1.000861
1.000973
1.001053
1.001097
1.001100
1.001059
1.000967
1.000820
0.999158
0.999009
0.998914
0.998872
0.998874
0.998917
0.998996
0.999108
0.999249
0.999414
0.999597
0.999793
0.999996
1.000200
1.000398
1.000584
1.000753
1.000898
1.001014
1.001097
1.001143
1.001147
1.001104
1.001008
1.000855
0.999131
0.998976
0.998879
0.998835
0.998837
0.998881
0.998963
0.999079
0.999224
0.999394
0.999583
0.999786
0.999996
1.000207
1.000411
1.000604
1.000778
1.000928
1.001048
1.001134
1.001181
1.001184
1.001140
1.001042
1.000884
0.999109
0.998951
0.998851
0.998806
0.998808
0.998853
0.998937
0.999056
0.999205
0.999379
0.999573
0.999781
0.999996
1.000212
1.000422
1.000619
1.000798
1.000951
1.001074
1.001162
1.001210
1.001214
1.001168
1.001067
1.000906
0.999094
0.998933
0.998832
0.998786
0.998788
0.998834
0.998919
0.999039
0.999191
0.999368
0.999565
0.999777
0.999996
1.000216
1.000430
1.000630
1.000812
1.000968
1.001093
1.001182
1.001231
1.001234
1.001188
1.001086
1.000921
0.999085
0.998923
0.998820
0.998774
0.998776
0.998822
0.998908
0.999029
0.999182
0.999361
0.999561
0.999774
0.999996
1.000218
1.000434
1.000637
1.000820
1.000978
1.001104
1.001194
1.001243
1.001247
1.001200
1.001097
1.000931
0.999082
0.998919
0.998816
0.998770
0.998772
0.998818
0.998904
0.999026
0.999180
0.999359
0.999559
0.999774
0.999996
1.000219
1.000436
1.000639
1.000823
1.000981
1.001108
1.001198
1.001247
1.001251
1.001204
1.001100
1.000934
0.999085
0.998923
0.998820
0.998774
0.998776
0.998822
0.998908
0.999029
0.999182
0.999361
0.999561
0.999774
0.999996
1.000218
1.000434
1.000637
1.000820
1.000978
1.001104
1.001194
1.001243
1.001247
1.001200
1.001097
1.000931
0.999094
0.998933
0.998832
0.998786
0.998788
0.998834
0.998919
0.999039
0.999191
0.999368
0.999565
0.999777
0.999996
1.000216
1.000430
1.000630
1.000812
1.000968
1.001093
1.001182
1.001231
1.001234
1.001188
1.001086
1.000921
0.999109
0.998951
0.998851
0.998806
0.998808
0.998853
0.998937
0.999056
0.999205
0.999379
0.999573
0.999781
0.999996
1.000212
1.000422
1.000619
1.000798
1.000951
1.001074
1.001162
1.001210
1.001214
1.001168
1.001067
1.000906
0.999131
0.998976
0.998879
0.998835
0.998837
0.998881
0.998963
0.999079
0.999224
0.999394
0.999583
0.999786
0.999996
1.000207
1.000411
1.000604
1.000778
1.000928
1.001048
1.001134
1.001181
1.001184
1.001140
1.001042
1.000884
0.999158
0.999009
0.998914
0.998872
0.998874
0.998917
0.998996
0.999108
0.999249
0.999414
0.999597
0.999793
0.999996
1.000200
1.000398
1.000584
1.000753
1.000898
1.001014
1.001097
1.001143
1.001147
1.001104
1.001008
1.000855
0.999193
0.999049
0.998958
0.998917
0.998919
0.998960
0.999037
0.999145
0.999280
0.999438
0.999614
0.999802
0.999996
1.000191
1.000381
1.000560
1.000722
1.000861
1.000973
1.001053
1.001097
1.001100
1.001059
1.000967
1.000820
0.999234
0.999097
0.999010
0.998971
0.998973
0.999012
0.999085
0.999188
0.999317
0.999467
0.999634
0.999812
0.999996
1.000181
1.000361
1.000531
1.000685
1.000817
1.000924
1.001000
1.001042
1.001045
1.001006
1.000918
1.000778
0.999283
0.999153
0.999071
0.999034
0.999036
0.999073
0.999141
0.999238
0.999359
0.999500
0.999657
0.999824
0.999997
1.000170
1.000338
1.000497
1.000642
1.000766
1.000867
1.000938
1.000978
1.000981
1.000943
1.000860
1.000728
0.999340
0.999219
0.999142
0.999107
0.999108
0.999142
0.999206
0.999296
0.999409
0.999539
0.999684
0.999838
0.999997
1.000156
1.000312
1.000459
1.000592
1.000708
1.000801
1.000868
1.000904
1.000906
1.000871
1.000793
1.000670
0.999407
0.999296
0.999224
0.999191
0.999192
0.999223
0.999281
0.999363
0.999465
0.999584
0.999714
0.999853
0.999997
1.000141
1.000282
1.000414
1.000535
1.000640
1.000725
1.000785
1.000819
1.000820
1.000787
1.000715
1.000602
0.999488
0.999387
0.999322
0.999291
0.999291
0.999319
0.999370
0.999443
0.999533
0.999637
0.999751
0.999872
0.999997
1.000123
1.000245
1.000361
1.000467
1.000560
1.000634
1.000688
1.000717
1.000718
1.000688
1.000621
1.000519
0.999592
0.999495
0.999437
0.999411
0.999411
0.999434
0.999478
0.999539
0.999614
0.999700
0.999795
0.999895
0.999998
1.000101
1.000202
1.000298
1.000386
1.000463
1.000526
1.000571
1.000596
1.000597
1.000570
1.000512
1.000413
0.999436
0.999341
0.999280
0.999251
0.999253
0.999282
0.999336
0.999411
0.999506
0.999615
0.999736
0.999864
0.999997
1.000131
1.000261
1.000383
1.000495
1.000592
1.000670
1.000726
1.000757
1.000760
1.000731
1.000669
1.000572
0.999335
0.999249
0.999187
0.999156
0.999158
0.999191
0.999251
0.999335
0.999440
0.999564
0.999700
0.999846
0.999997
1.000148
1.000296
1.000435
1.000560
1.000669
1.000756
1.000819
1.000853
1.000857
1.000826
1.000763
1.000676
0.999247
0.999159
0.999094
0.999063
0.999066
0.999102
0.999168
0.999261
0.999377
0.999514
0.999666
0.999828
0.999997
1.000166
1.000330
1.000484
1.000624
1.000744
1.000841
1.000909
1.000948
1.000952
1.000921
1.000855
1.000765
0.999173
0.999078
0.999010
0.998978
0.998982
0.999021
0.999093
0.999194
0.999320
0.999469
0.999635
0.999812
0.999996
1.000181
1.000361
1.000529
1.000681
1.000812
1.000917
1.000991
1.001033
1.001039
1.001007
1.000938
1.000841
0.999107
0.999007
0.998936
0.998902
0.998907
0.998949
0.999026
0.999134
0.999270
0.999429
0.999607
0.999798
0.999996
1.000195
1.000388
1.000569
1.000732
1.000872
1.000984
1.001064
1.001109
1.001116
1.001083
1.001011
1.000908
0.999051
0.998945
0.998871
0.998836
0.998842
0.998887
0.998967
0.999082
0.999225
0.999394
0.999583
0.999786
0.999996
1.000207
1.000412
1.000604
1.000777
1.000925
1.001044
1.001129
1.001176
1.001184
1.001149
1.001074
1.000966
0.999003
0.998892
0.998815
0.998779
0.998785
0.998832
0.998917
0.999036
0.999187
0.999364
0.999562
0.999775
0.999996
1.000218
1.000433
1.000635
1.000816
1.000972
1.001096
1.001184
1.001234
1.001242
1.001207
1.001128
1.001015
0.998962
0.998848
0.998768
0.998731
0.998737
0.998785
0.998873
0.998997
0.999154
0.999338
0.999544
0.999766
0.999996
1.000227
1.000451
1.000661
1.000850
1.001011
1.001140
1.001232
1.001283
1.001292
1.001255
1.001173
1.001057
0.998929
0.998812
0.998729
0.998691
0.998698
0.998747
0.998838
0.998965
0.999127
0.999316
0.999529
0.999758
0.999996
1.000234
1.000466
1.000682
1.000877
1.001043
1.001176
1.001271
1.001324
1.001332
1.001295
1.001211
1.001090
0.998904
0.998783
0.998699
0.998660
0.998667
0.998718
0.998810
0.998941
0.999105
0.999300
0.999518
0.999752
0.999996
1.000240
1.000477
1.000699
1.000898
1.001069
1.001204
1.001301
1.001355
1.001364
1.001325
1.001240
1.001117
0.998885
0.998763
0.998678
0.998638
0.998645
0.998696
0.998790
0.998923
0.999090
0.999288
0.999509
0.999748
0.999996
1.000244
1.000486
1.000711
1.000914
1.001087
1.001225
1.001323
1.001378
1.001387
1.001347
1.001260
1.001135
0.998874
0.998751
0.998665
0.998625
0.998631
0.998683
0.998778
0.998912
0.999081
0.999281
0.999504
0.999745
0.999996
1.000247
1.000491
1.000719
1.000923
1.001098
1.001237
1.001336
1.001392
1.001401
1.001361
1.001273
1.001147
0.998871
0.998747
0.998660
0.998620
0.998627
0.998679
0.998774
0.998908
0.999078
0.999278
0.999503
0.999745
0.999996
1.000248
1.000492
1.000721
1.000926
1.001101
1.001241
1.001341
1.001396
1.001405
1.001365
1.001277
1.001150
0.998874
0.998751
0.998665
0.998625
0.998631
0.998683
0.998778
0.998912
0.999081
0.999281
0.999504
0.999745
0.999996
1.000247
1.000491
1.000719
1.000923
1.001098
1.001237
1.001336
1.001392
1.001401
1.001361
1.001273
1.001147
0.998885
0.998763
0.998678
0.998638
0.998645
0.998696
0.998790
0.998923
0.999090
0.999288
0.999509
0.999748
0.999996
1.000244
1.000486
1.000711
1.000914
1.001087
1.001225
1.001323
1.001378
1.001387
1.001347
1.001260
1.001135
0.998904
0.998783
0.998699
0.998660
0.998667
0.998718
0.998810
0.998941
0.999105
0.999300
0.999518
0.999752
0.999996
1.000240
1.000477
1.000699
1.000898
1.001069
1.001204
1.001301
1.001355
1.001364
1.001325
1.001240
1.001117
0.998929
0.998812
0.998729
0.998691
0.998698
0.998747
0.998838
0.998965
0.999127
0.999316
0.999529
0.999758
0.999996
1.000234
1.000466
1.000682
1.000877
1.001043
1.001176
1.001271
1.001324
1.001332
1.001295
1.001211
1.001090
0.998962
0.998848
0.998768
0.998731
0.998737
0.998785
0.998873
0.998997
0.999154
0.999338
0.999544
0.999766
0.999996
1.000227
1.000451
1.000661
1.000850
1.001011
1.001140
1.001232
1.001283
1.001292
1.001255
1.001173
1.001057
0.999003
0.998892
0.998815
0.998779
0.998785
0.998832
0.998917
0.999036
0.999187
0.999364
0.999562
0.999775
0.999996
1.000218
1.000433
1.000635
1.000816
1.000972
1.001096
1.001184
1.001234
1.001242
1.001207
1.001128
1.001015
0.999051
0.998945
0.998871
0.998836
0.998842
0.998887
0.998967
0.999082
0.999225
0.999394
0.999583
0.999786
0.999996
1.000207
1.000412
1.000604
1.000777
1.000925
1.001044
1.001129
1.001176
1.001184
1.001149
1.001074
1.000966
0.999107
0.999007
0.998936
0.998902
0.998907
0.998949
0.999026
0.999134
0.999270
0.999429
0.999607
0.999798
0.999996
1.000195
1.000388
1.000569
1.000732
1.000872
1.000984
1.001064
1.001109
1.001116
1.001083
1.001011
1.000908
0.999173
0.999078
0.999010
0.998978
0.998982
0.999021
0.999093
0.999194
0.999320
0.999469
0.999635
0.999812
0.999996
1.000181
1.000361
1.000529
1.000681
1.000812
1.000917
1.000991
1.001033
1.001039
1.001007
1.000938
1.000841
0.999247
0.999159
0.999094
0.999063
0.999066
0.999102
0.999168
0.999261
0.999377
0.999514
0.999666
0.999828
0.999997
1.000166
1.000330
1.000484
1.000624
1.000744
1.000841
1.000909
1.000948
1.000952
1.000921
1.000855
1.000765
0.999335
0.999249
0.999187
0.999156
0.999158
0.999191
0.999251
0.999335
0.999440
0.999564
0.999700
0.999846
0.999997
1.000148
1.000296
1.000435
1.000560
1.000669
1.000756
1.000819
1.000853
1.000857
1.000826
1.000763
1.000676
0.999436
0.999341
0.999280
0.999251
0.999253
0.999282
0.999336
0.999411
0.999506
0.999615
0.999736
0.999864
0.999997
1.000131
1.000261
1.000383
1.000495
1.000592
1.000670
1.000726
1.000757
1.000760
1.000731
1.000669
1.000572
0.999191
0.999080
0.999011
0.998981
0.998987
0.999027
0.999099
0.999199
0.999325
0.999472
0.999637
0.999813
0.999996
1.000180
1.000358
1.000525
1.000676
1.000806
1.000910
1.000985
1.001028
1.001036
1.001006
1.000936
1.000823
0.999074
0.998983
0.998918
0.998888
0.998895
0.998939
0.999016
0.999125
0.999262
0.999423
0.999602
0.999795
0.999996
1.000197
1.000392
1.000575
1.000740
1.000881
1.000995
1.001076
1.001122
1.001131
1.001102
1.001036
1.000943
0.998975
0.998885
0.998822
0.998794
0.998803
0.998851
0.998934
0.999052
0.999199
0.999373
0.999568
0.999778
0.999996
1.000214
1.000426
1.000625
1.000803
1.000956
1.001078
1.001166
1.001216
1.001228
1.001200
1.001135
1.001044
0.998889
0.998796
0.998732
0.998705
0.998716
0.998768
0.998857
0.998983
0.999141
0.999327
0.999536
0.999762
0.999996
1.000231
1.000458
1.000671
1.000862
1.001026
1.001156
1.001250
1.001305
1.001319
1.001292
1.001227
1.001132
0.998814
0.998717
0.998651
0.998623
0.998637
0.998692
0.998787
0.998920
0.999088
0.999285
0.999507
0.999747
0.999996
1.000245
1.000487
1.000714
1.000916
1.001090
1.001228
1.001328
1.001386
1.001402
1.001375
1.001309
1.001209
0.998747
0.998646
0.998579
0.998551
0.998566
0.998624
0.998724
0.998863
0.999040
0.999248
0.999481
0.999733
0.999996
1.000259
1.000514
1.000752
1.000965
1.001147
1.001292
1.001397
1.001459
1.001476
1.001449
1.001381
1.001278
0.998689
0.998585
0.998516
0.998488
0.998504
0.998564
0.998668
0.998814
0.998997
0.999214
0.999458
0.999722
0.999995
1.000270
1.000537
1.000785
1.001008
1.001197
1.001349
1.001458
1.001523
1.001541
1.001514
1.001443
1.001337
0.998640
0.998534
0.998462
0.998434
0.998450
0.998513
0.998620
0.998771
0.998961
0.999186
0.999438
0.999711
0.999995
1.000281
1.000557
1.000814
1.001045
1.001241
1.001398
1.001511
1.001577
1.001597
1.001569
1.001496
1.001387
0.998600
0.998491
0.998418
0.998389
0.998406
0.998470
0.998581
0.998735
0.998931
0.999162
0.999422
0.999703
0.999995
1.000289
1.000573
1.000838
1.001075
1.001277
1.001438
1.001554
1.001623
1.001643
1.001614
1.001540
1.001428
0.998569
0.998457
0.998383
0.998353
0.998371
0.998437
0.998549
0.998707
0.998907
0.999143
0.999409
0.999696
0.999995
1.000296
1.000587
1.000858
1.001100
1.001306
1.001470
1.001589
1.001659
1.001679
1.001650
1.001575
1.001461
0.998546
0.998433
0.998358
0.998328
0.998346
0.998412
0.998527
0.998687
0.998889
0.999129
0.999399
0.999691
0.999995
1.000301
1.000596
1.000871
1.001117
1.001327
1.001493
1.001614
1.001684
1.001705
1.001676
1.001599
1.001484
0.998533
0.998419
0.998343
0.998313
0.998331
0.998398
0.998513
0.998674
0.998879
0.999121
0.999393
0.999688
0.999995
1.000304
1.000602
1.000880
1.001128
1.001339
1.001507
1.001629
1.001700
1.001721
1.001691
1.001614
1.001498
0.998528
0.998414
0.998338
0.998307
0.998325
0.998393
0.998508
0.998670
0.998875
0.999118
0.999392
0.999687
0.999995
1.000305
1.000604
1.000883
1.001132
1.001344
1.001512
1.001634
1.001705
1.001726
1.001696
1.001619
1.001503
0.998533
0.998419
0.998343
0.998313
0.998331
0.998398
0.998513
0.998674
0.998879
0.999121
0.999393
0.999688
0.999995
1.000304
1.000602
1.000880
1.001128
1.001339
1.001507
1.001629
1.001700
1.001721
1.001691
1.001614
1.001498
0.998546
0.998433
0.998358
0.998328
0.998346
0.998412
0.998527
0.998687
0.998889
0.999129
0.999399
0.999691
0.999995
1.000301
1.000596
1.000871
1.001117
1.001327
1.001493
1.001614
1.001684
1.001705
1.001676
1.001599
1.001484
0.998569
0.998457
0.998383
0.998353
0.998371
0.998437
0.998549
0.998707
0.998907
0.999143
0.999409
0.999696
0.999995
1.000296
1.000587
1.000858
1.001100
1.001306
1.001470
1.001589
1.001659
1.001679
1.001650
1.001575
1.001461
0.998600
0.998491
0.998418
0.998389
0.998406
0.998470
0.998581
0.998735
0.998931
0.999162
0.999422
0.999703
0.999995
1.000289
1.000573
1.000838
1.001075
1.001277
1.001438
1.001554
1.001623
1.001643
1.001614
1.001540
1.001428
0.998640
0.998534
0.998462
0.998434
0.998450
0.998513
0.998620
0.998771
0.998961
0.999186
0.999438
0.999711
0.999995
1.000281
1.000557
1.000814
1.001045
1.001241
1.001398
1.001511
1.001577
1.001597
1.001569
1.001496
1.001387
0.998689
0.998585
0.998516
0.998488
0.998504
0.998564
0.998668
0.998814
0.998997
0.999214
0.999458
0.999722
0.999995
1.000270
1.000537
1.000785
1.001008
1.001197
1.001349
1.001458
1.001523
1.001541
1.001514
1.001443
1.001337
0.998747
0.998646
0.998579
0.998551
0.998566
0.998624
0.998724
0.998863
0.999040
0.999248
0.999481
0.999733
0.999996
1.000259
1.000514
1.000752
1.000965
1.001147
1.001292
1.001397
1.001459
1.001476
1.001449
1.001381
1.001278
0.998814
0.998717
0.998651
0.998623
0.998637
0.998692
0.998787
0.998920
0.999088
0.999285
0.999507
0.999747
0.999996
1.000245
1.000487
1.000714
1.000916
1.001090
1.001228
1.001328
1.001386
1.001402
1.001375
1.001309
1.001209
0.998889
0.998796
0.998732
0.998705
0.998716
0.998768
0.998857
0.998983
0.999141
0.999327
0.999536
0.999762
0.999996
1.000231
1.000458
1.000671
1.000862
1.001026
1.001156
1.001250
1.001305
1.001319
1.001292
1.001227
1.001132
0.998975
0.998885
0.998822
0.998794
0.998803
0.998851
0.998934
0.999052
0.999199
0.999373
0.999568
0.999778
0.999996
1.000214
1.000426
1.000625
1.000803
1.000956
1.001078
1.001166
1.001216
1.001228
1.001200
1.001135
1.001044
0.999074
0.998983
0.998918
0.998888
0.998895
0.998939
0.999016
0.999125
0.999262
0.999423
0.999602
0.999795
0.999996
1.000197
1.000392
1.000575
1.000740
1.000881
1.000995
1.001076
1.001122
1.001131
1.001102
1.001036
1.000943
0.999191
0.999080
0.999011
0.998981
0.998987
0.999027
0.999099
0.999199
0.999325
0.999472
0.999637
0.999813
0.999996
1.000180
1.000358
1.000525
1.000676
1.000806
1.000910
1.000985
1.001028
1.001036
1.001006
1.000936
1.000823
0.998838
0.998703
0.998624
0.998593
0.998607
0.998664
0.998762
0.998898
0.999069
0.999271
0.999497
0.999741
0.999994
1.000249
1.000495
1.000726
1.000933
1.001110
1.001252
1.001355
1.001416
1.001433
1.001403
1.001323
1.001185
0.998698
0.998594
0.998523
0.998495
0.998512
0.998573
0.998677
0.998823
0.999005
0.999220
0.999462
0.999723
0.999994
1.000267
1.000531
1.000777
1.000998
1.001187
1.001338
1.001448
1.001514
1.001533
1.001506
1.001434
1.001328
0.998583
0.998486
0.998421
0.998397
0.998417
0.998484
0.998595
0.998749
0.998942
0.999171
0.999428
0.999706
0.999994
1.000284
1.000565
1.000827
1.001062
1.001262
1.001423
1.001540
1.001610
1.001634
1.001611
1.001545
1.001446
0.998484
0.998386
0.998324
0.998303
0.998327
0.998398
0.998515
0.998678
0.998883
0.999124
0.999396
0.999689
0.999994
1.000301
1.000598
1.000875
1.001122
1.001334
1.001504
1.001627
1.001703
1.001730
1.001711
1.001647
1.001547
0.998396
0.998296
0.998234
0.998215
0.998242
0.998318
0.998442
0.998612
0.998827
0.999080
0.999366
0.999674
0.999994
1.000316
1.000628
1.000919
1.001179
1.001401
1.001579
1.001709
1.001790
1.001820
1.001802
1.001740
1.001637
0.998318
0.998216
0.998154
0.998136
0.998165
0.998245
0.998374
0.998552
0.998776
0.999040
0.999338
0.999660
0.999995
1.000331
1.000656
1.000959
1.001231
1.001462
1.001648
1.001784
1.001868
1.001902
1.001885
1.001822
1.001717
0.998250
0.998145
0.998083
0.998065
0.998097
0.998180
0.998314
0.998498
0.998730
0.999004
0.999313
0.999647
0.999995
1.000343
1.000681
1.000996
1.001277
1.001517
1.001709
1.001850
1.001938
1.001974
1.001958
1.001894
1.001788
0.998191
0.998085
0.998021
0.998004
0.998037
0.998123
0.998261
0.998451
0.998690
0.998973
0.999291
0.999636
0.999995
1.000355
1.000703
1.001028
1.001318
1.001565
1.001763
1.001908
1.001999
1.002036
1.002021
1.001957
1.001848
0.998142
0.998035
0.997970
0.997953
0.997988
0.998075
0.998217
0.998412
0.998657
0.998946
0.999273
0.999626
0.999995
1.000364
1.000722
1.001055
1.001352
1.001605
1.001808
1.001957
1.002050
1.002089
1.002073
1.002008
1.001898
0.998104
0.997995
0.997930
0.997913
0.997948
0.998037
0.998182
0.998380
0.998630
0.998925
0.999258
0.999619
0.999995
1.000372
1.000737
1.001076
1.001379
1.001637
1.001844
1.001996
1.002091
1.002130
1.002115
1.002049
1.001937
0.998076
0.997966
0.997900
0.997884
0.997919
0.998010
0.998156
0.998357
0.998610
0.998909
0.999248
0.999613
0.999995
1.000377
1.000747
1.001092
1.001399
1.001661
1.001870
1.002024
1.002121
1.002160
1.002145
1.002079
1.001966
0.998060
0.997949
0.997883
0.997866
0.997902
0.997993
0.998140
0.998343
0.998598
0.998900
0.999241
0.999610
0.999995
1.000381
1.000754
1.001101
1.001412
1.001675
1.001886
1.002041
1.002138
1.002178
1.002163
1.002097
1.001983
0.998054
0.997943
0.997877
0.997860
0.997896
0.997987
0.998135
0.998338
0.998594
0.998897
0.999239
0.999609
0.999995
1.000382
1.000756
1.001105
1.001416
1.001680
1.001892
1.002047
1.002144
1.002184
1.002169
1.002103
1.001989
0.998060
0.997949
0.997883
0.997866
0.997902
0.997993
0.998140
0.998343
0.998598
0.998900
0.999241
0.999610
0.999995
1.000381
1.000754