# vtk DataFile Version 2.0
generated by CFD-lab course output 
ASCII

DATASET STRUCTURED_GRID
DIMENSIONS  25 25 25 
POINTS 15625 float

1 1 1
2 1 1
3 1 1
4 1 1
5 1 1
6 1 1
7 1 1
8 1 1
9 1 1
10 1 1
11 1 1
12 1 1
13 1 1
14 1 1
15 1 1
16 1 1
17 1 1
18 1 1
19 1 1
20 1 1
21 1 1
22 1 1
23 1 1
24 1 1
25 1 1
1 2 1
2 2 1
3 2 1
4 2 1
5 2 1
6 2 1
7 2 1
8 2 1
9 2 1
10 2 1
11 2 1
12 2 1
13 2 1
14 2 1
15 2 1
16 2 1
17 2 1
18 2 1
19 2 1
20 2 1
21 2 1
22 2 1
23 2 1
24 2 1
25 2 1
1 3 1
2 3 1
3 3 1
4 3 1
5 3 1
6 3 1
7 3 1
8 3 1
9 3 1
10 3 1
11 3 1
12 3 1
13 3 1
14 3 1
15 3 1
16 3 1
17 3 1
18 3 1
19 3 1
20 3 1
21 3 1
22 3 1
23 3 1
24 3 1
25 3 1
1 4 1
2 4 1
3 4 1
4 4 1
5 4 1
6 4 1
7 4 1
8 4 1
9 4 1
10 4 1
11 4 1
12 4 1
13 4 1
14 4 1
15 4 1
16 4 1
17 4 1
18 4 1
19 4 1
20 4 1
21 4 1
22 4 1
23 4 1
24 4 1
25 4 1
1 5 1
2 5 1
3 5 1
4 5 1
5 5 1
6 5 1
7 5 1
8 5 1
9 5 1
10 5 1
11 5 1
12 5 1
13 5 1
14 5 1
15 5 1
16 5 1
17 5 1
18 5 1
19 5 1
20 5 1
21 5 1
22 5 1
23 5 1
24 5 1
25 5 1
1 6 1
2 6 1
3 6 1
4 6 1
5 6 1
6 6 1
7 6 1
8 6 1
9 6 1
10 6 1
11 6 1
12 6 1
13 6 1
14 6 1
15 6 1
16 6 1
17 6 1
18 6 1
19 6 1
20 6 1
21 6 1
22 6 1
23 6 1
24 6 1
25 6 1
1 7 1
2 7 1
3 7 1
4 7 1
5 7 1
6 7 1
7 7 1
8 7 1
9 7 1
10 7 1
11 7 1
12 7 1
13 7 1
14 7 1
15 7 1
16 7 1
17 7 1
18 7 1
19 7 1
20 7 1
21 7 1
22 7 1
23 7 1
24 7 1
25 7 1
1 8 1
2 8 1
3 8 1
4 8 1
5 8 1
6 8 1
7 8 1
8 8 1
9 8 1
10 8 1
11 8 1
12 8 1
13 8 1
14 8 1
15 8 1
16 8 1
17 8 1
18 8 1
19 8 1
20 8 1
21 8 1
22 8 1
23 8 1
24 8 1
25 8 1
1 9 1
2 9 1
3 9 1
4 9 1
5 9 1
6 9 1
7 9 1
8 9 1
9 9 1
10 9 1
11 9 1
12 9 1
13 9 1
14 9 1
15 9 1
16 9 1
17 9 1
18 9 1
19 9 1
20 9 1
21 9 1
22 9 1
23 9 1
24 9 1
25 9 1
1 10 1
2 10 1
3 10 1
4 10 1
5 10 1
6 10 1
7 10 1
8 10 1
9 10 1
10 10 1
11 10 1
12 10 1
13 10 1
14 10 1
15 10 1
16 10 1
17 10 1
18 10 1
19 10 1
20 10 1
21 10 1
22 10 1
23 10 1
24 10 1
25 10 1
1 11 1
2 11 1
3 11 1
4 11 1
5 11 1
6 11 1
7 11 1
8 11 1
9 11 1
10 11 1
11 11 1
12 11 1
13 11 1
14 11 1
15 11 1
16 11 1
17 11 1
18 11 1
19 11 1
20 11 1
21 11 1
22 11 1
23 11 1
24 11 1
25 11 1
1 12 1
2 12 1
3 12 1
4 12 1
5 12 1
6 12 1
7 12 1
8 12 1
9 12 1
10 12 1
11 12 1
12 12 1
13 12 1
14 12 1
15 12 1
16 12 1
17 12 1
18 12 1
19 12 1
20 12 1
21 12 1
22 12 1
23 12 1
24 12 1
25 12 1
1 13 1
2 13 1
3 13 1
4 13 1
5 13 1
6 13 1
7 13 1
8 13 1
9 13 1
10 13 1
11 13 1
12 13 1
13 13 1
14 13 1
15 13 1
16 13 1
17 13 1
18 13 1
19 13 1
20 13 1
21 13 1
22 13 1
23 13 1
24 13 1
25 13 1
1 14 1
2 14 1
3 14 1
4 14 1
5 14 1
6 14 1
7 14 1
8 14 1
9 14 1
10 14 1
11 14 1
12 14 1
13 14 1
14 14 1
15 14 1
16 14 1
17 14 1
18 14 1
19 14 1
20 14 1
21 14 1
22 14 1
23 14 1
24 14 1
25 14 1
1 15 1
2 15 1
3 15 1
4 15 1
5 15 1
6 15 1
7 15 1
8 15 1
9 15 1
10 15 1
11 15 1
12 15 1
13 15 1
14 15 1
15 15 1
16 15 1
17 15 1
18 15 1
19 15 1
20 15 1
21 15 1
22 15 1
23 15 1
24 15 1
25 15 1
1 16 1
2 16 1
3 16 1
4 16 1
5 16 1
6 16 1
7 16 1
8 16 1
9 16 1
10 16 1
11 16 1
12 16 1
13 16 1
14 16 1
15 16 1
16 16 1
17 16 1
18 16 1
19 16 1
20 16 1
21 16 1
22 16 1
23 16 1
24 16 1
25 16 1
1 17 1
2 17 1
3 17 1
4 17 1
5 17 1
6 17 1
7 17 1
8 17 1
9 17 1
10 17 1
11 17 1
12 17 1
13 17 1
14 17 1
15 17 1
16 17 1
17 17 1
18 17 1
19 17 1
20 17 1
21 17 1
22 17 1
23 17 1
24 17 1
25 17 1
1 18 1
2 18 1
3 18 1
4 18 1
5 18 1
6 18 1
7 18 1
8 18 1
9 18 1
10 18 1
11 18 1
12 18 1
13 18 1
14 18 1
15 18 1
16 18 1
17 18 1
18 18 1
19 18 1
20 18 1
21 18 1
22 18 1
23 18 1
24 18 1
25 18 1
1 19 1
2 19 1
3 19 1
4 19 1
5 19 1
6 19 1
7 19 1
8 19 1
9 19 1
10 19 1
11 19 1
12 19 1
13 19 1
14 19 1
15 19 1
16 19 1
17 19 1
18 19 1
19 19 1
20 19 1
21 19 1
22 19 1
23 19 1
24 19 1
25 19 1
1 20 1
2 20 1
3 20 1
4 20 1
5 20 1
6 20 1
7 20 1
8 20 1
9 20 1
10 20 1
11 20 1
12 20 1
13 20 1
14 20 1
15 20 1
16 20 1
17 20 1
18 20 1
19 20 1
20 20 1
21 20 1
22 20 1
23 20 1
24 20 1
25 20 1
1 21 1
2 21 1
3 21 1
4 21 1
5 21 1
6 21 1
7 21 1
8 21 1
9 21 1
10 21 1
11 21 1
12 21 1
13 21 1
14 21 1
15 21 1
16 21 1
17 21 1
18 21 1
19 21 1
20 21 1
21 21 1
22 21 1
23 21 1
24 21 1
25 21 1
1 22 1
2 22 1
3 22 1
4 22 1
5 22 1
6 22 1
7 22 1
8 22 1
9 22 1
10 22 1
11 22 1
12 22 1
13 22 1
14 22 1
15 22 1
16 22 1
17 22 1
18 22 1
19 22 1
20 22 1
21 22 1
22 22 1
23 22 1
24 22 1
25 22 1
1 23 1
2 23 1
3 23 1
4 23 1
5 23 1
6 23 1
7 23 1
8 23 1
9 23 1
10 23 1
11 23 1
12 23 1
13 23 1
14 23 1
15 23 1
16 23 1
17 23 1
18 23 1
19 23 1
20 23 1
21 23 1
22 23 1
23 23 1
24 23 1
25 23 1
1 24 1
2 24 1
3 24 1
4 24 1
5 24 1
6 24 1
7 24 1
8 24 1
9 24 1
10 24 1
11 24 1
12 24 1
13 24 1
14 24 1
15 24 1
16 24 1
17 24 1
18 24 1
19 24 1
20 24 1
21 24 1
22 24 1
23 24 1
24 24 1
25 24 1
1 25 1
2 25 1
3 25 1
4 25 1
5 25 1
6 25 1
7 25 1
8 25 1
9 25 1
10 25 1
11 25 1
12 25 1
13 25 1
14 25 1
15 25 1
16 25 1
17 25 1
18 25 1
19 25 1
20 25 1
21 25 1
22 25 1
23 25 1
24 25 1
25 25 1
1 1 2
2 1 2
3 1 2
4 1 2
5 1 2
6 1 2
7 1 2
8 1 2
9 1 2
10 1 2
11 1 2
12 1 2
13 1 2
14 1 2
15 1 2
16 1 2
17 1 2
18 1 2
19 1 2
20 1 2
21 1 2
22 1 2
23 1 2
24 1 2
25 1 2
1 2 2
2 2 2
3 2 2
4 2 2
5 2 2
6 2 2
7 2 2
8 2 2
9 2 2
10 2 2
11 2 2
12 2 2
13 2 2
14 2 2
15 2 2
16 2 2
17 2 2
18 2 2
19 2 2
20 2 2
21 2 2
22 2 2
23 2 2
24 2 2
25 2 2
1 3 2
2 3 2
3 3 2
4 3 2
5 3 2
6 3 2
7 3 2
8 3 2
9 3 2
10 3 2
11 3 2
12 3 2
13 3 2
14 3 2
15 3 2
16 3 2
17 3 2
18 3 2
19 3 2
20 3 2
21 3 2
22 3 2
23 3 2
24 3 2
25 3 2
1 4 2
2 4 2
3 4 2
4 4 2
5 4 2
6 4 2
7 4 2
8 4 2
9 4 2
10 4 2
11 4 2
12 4 2
13 4 2
14 4 2
15 4 2
16 4 2
17 4 2
18 4 2
19 4 2
20 4 2
21 4 2
22 4 2
23 4 2
24 4 2
25 4 2
1 5 2
2 5 2
3 5 2
4 5 2
5 5 2
6 5 2
7 5 2
8 5 2
9 5 2
10 5 2
11 5 2
12 5 2
13 5 2
14 5 2
15 5 2
16 5 2
17 5 2
18 5 2
19 5 2
20 5 2
21 5 2
22 5 2
23 5 2
24 5 2
25 5 2
1 6 2
2 6 2
3 6 2
4 6 2
5 6 2
6 6 2
7 6 2
8 6 2
9 6 2
10 6 2
11 6 2
12 6 2
13 6 2
14 6 2
15 6 2
16 6 2
17 6 2
18 6 2
19 6 2
20 6 2
21 6 2
22 6 2
23 6 2
24 6 2
25 6 2
1 7 2
2 7 2
3 7 2
4 7 2
5 7 2
6 7 2
7 7 2
8 7 2
9 7 2
10 7 2
11 7 2
12 7 2
13 7 2
14 7 2
15 7 2
16 7 2
17 7 2
18 7 2
19 7 2
20 7 2
21 7 2
22 7 2
23 7 2
24 7 2
25 7 2
1 8 2
2 8 2
3 8 2
4 8 2
5 8 2
6 8 2
7 8 2
8 8 2
9 8 2
10 8 2
11 8 2
12 8 2
13 8 2
14 8 2
15 8 2
16 8 2
17 8 2
18 8 2
19 8 2
20 8 2
21 8 2
22 8 2
23 8 2
24 8 2
25 8 2
1 9 2
2 9 2
3 9 2
4 9 2
5 9 2
6 9 2
7 9 2
8 9 2
9 9 2
10 9 2
11 9 2
12 9 2
13 9 2
14 9 2
15 9 2
16 9 2
17 9 2
18 9 2
19 9 2
20 9 2
21 9 2
22 9 2
23 9 2
24 9 2
25 9 2
1 10 2
2 10 2
3 10 2
4 10 2
5 10 2
6 10 2
7 10 2
8 10 2
9 10 2
10 10 2
11 10 2
12 10 2
13 10 2
14 10 2
15 10 2
16 10 2
17 10 2
18 10 2
19 10 2
20 10 2
21 10 2
22 10 2
23 10 2
24 10 2
25 10 2
1 11 2
2 11 2
3 11 2
4 11 2
5 11 2
6 11 2
7 11 2
8 11 2
9 11 2
10 11 2
11 11 2
12 11 2
13 11 2
14 11 2
15 11 2
16 11 2
17 11 2
18 11 2
19 11 2
20 11 2
21 11 2
22 11 2
23 11 2
24 11 2
25 11 2
1 12 2
2 12 2
3 12 2
4 12 2
5 12 2
6 12 2
7 12 2
8 12 2
9 12 2
10 12 2
11 12 2
12 12 2
13 12 2
14 12 2
15 12 2
16 12 2
17 12 2
18 12 2
19 12 2
20 12 2
21 12 2
22 12 2
23 12 2
24 12 2
25 12 2
1 13 2
2 13 2
3 13 2
4 13 2
5 13 2
6 13 2
7 13 2
8 13 2
9 13 2
10 13 2
11 13 2
12 13 2
13 13 2
14 13 2
15 13 2
16 13 2
17 13 2
18 13 2
19 13 2
20 13 2
21 13 2
22 13 2
23 13 2
24 13 2
25 13 2
1 14 2
2 14 2
3 14 2
4 14 2
5 14 2
6 14 2
7 14 2
8 14 2
9 14 2
10 14 2
11 14 2
12 14 2
13 14 2
14 14 2
15 14 2
16 14 2
17 14 2
18 14 2
19 14 2
20 14 2
21 14 2
22 14 2
23 14 2
24 14 2
25 14 2
1 15 2
2 15 2
3 15 2
4 15 2
5 15 2
6 15 2
7 15 2
8 15 2
9 15 2
10 15 2
11 15 2
12 15 2
13 15 2
14 15 2
15 15 2
16 15 2
17 15 2
18 15 2
19 15 2
20 15 2
21 15 2
22 15 2
23 15 2
24 15 2
25 15 2
1 16 2
2 16 2
3 16 2
4 16 2
5 16 2
6 16 2
7 16 2
8 16 2
9 16 2
10 16 2
11 16 2
12 16 2
13 16 2
14 16 2
15 16 2
16 16 2
17 16 2
18 16 2
19 16 2
20 16 2
21 16 2
22 16 2
23 16 2
24 16 2
25 16 2
1 17 2
2 17 2
3 17 2
4 17 2
5 17 2
6 17 2
7 17 2
8 17 2
9 17 2
10 17 2
11 17 2
12 17 2
13 17 2
14 17 2
15 17 2
16 17 2
17 17 2
18 17 2
19 17 2
20 17 2
21 17 2
22 17 2
23 17 2
24 17 2
25 17 2
1 18 2
2 18 2
3 18 2
4 18 2
5 18 2
6 18 2
7 18 2
8 18 2
9 18 2
10 18 2
11 18 2
12 18 2
13 18 2
14 18 2
15 18 2
16 18 2
17 18 2
18 18 2
19 18 2
20 18 2
21 18 2
22 18 2
23 18 2
24 18 2
25 18 2
1 19 2
2 19 2
3 19 2
4 19 2
5 19 2
6 19 2
7 19 2
8 19 2
9 19 2
10 19 2
11 19 2
12 19 2
13 19 2
14 19 2
15 19 2
16 19 2
17 19 2
18 19 2
19 19 2
20 19 2
21 19 2
22 19 2
23 19 2
24 19 2
25 19 2
1 20 2
2 20 2
3 20 2
4 20 2
5 20 2
6 20 2
7 20 2
8 20 2
9 20 2
10 20 2
11 20 2
12 20 2
13 20 2
14 20 2
15 20 2
16 20 2
17 20 2
18 20 2
19 20 2
20 20 2
21 20 2
22 20 2
23 20 2
24 20 2
25 20 2
1 21 2
2 21 2
3 21 2
4 21 2
5 21 2
6 21 2
7 21 2
8 21 2
9 21 2
10 21 2
11 21 2
12 21 2
13 21 2
14 21 2
15 21 2
16 21 2
17 21 2
18 21 2
19 21 2
20 21 2
21 21 2
22 21 2
23 21 2
24 21 2
25 21 2
1 22 2
2 22 2
3 22 2
4 22 2
5 22 2
6 22 2
7 22 2
8 22 2
9 22 2
10 22 2
11 22 2
12 22 2
13 22 2
14 22 2
15 22 2
16 22 2
17 22 2
18 22 2
19 22 2
20 22 2
21 22 2
22 22 2
23 22 2
24 22 2
25 22 2
1 23 2
2 23 2
3 23 2
4 23 2
5 23 2
6 23 2
7 23 2
8 23 2
9 23 2
10 23 2
11 23 2
12 23 2
13 23 2
14 23 2
15 23 2
16 23 2
17 23 2
18 23 2
19 23 2
20 23 2
21 23 2
22 23 2
23 23 2
24 23 2
25 23 2
1 24 2
2 24 2
3 24 2
4 24 2
5 24 2
6 24 2
7 24 2
8 24 2
9 24 2
10 24 2
11 24 2
12 24 2
13 24 2
14 24 2
15 24 2
16 24 2
17 24 2
18 24 2
19 24 2
20 24 2
21 24 2
22 24 2
23 24 2
24 24 2
25 24 2
1 25 2
2 25 2
3 25 2
4 25 2
5 25 2
6 25 2
7 25 2
8 25 2
9 25 2
10 25 2
11 25 2
12 25 2
13 25 2
14 25 2
15 25 2
16 25 2
17 25 2
18 25 2
19 25 2
20 25 2
21 25 2
22 25 2
23 25 2
24 25 2
25 25 2
1 1 3
2 1 3
3 1 3
4 1 3
5 1 3
6 1 3
7 1 3
8 1 3
9 1 3
10 1 3
11 1 3
12 1 3
13 1 3
14 1 3
15 1 3
16 1 3
17 1 3
18 1 3
19 1 3
20 1 3
21 1 3
22 1 3
23 1 3
24 1 3
25 1 3
1 2 3
2 2 3
3 2 3
4 2 3
5 2 3
6 2 3
7 2 3
8 2 3
9 2 3
10 2 3
11 2 3
12 2 3
13 2 3
14 2 3
15 2 3
16 2 3
17 2 3
18 2 3
19 2 3
20 2 3
21 2 3
22 2 3
23 2 3
24 2 3
25 2 3
1 3 3
2 3 3
3 3 3
4 3 3
5 3 3
6 3 3
7 3 3
8 3 3
9 3 3
10 3 3
11 3 3
12 3 3
13 3 3
14 3 3
15 3 3
16 3 3
17 3 3
18 3 3
19 3 3
20 3 3
21 3 3
22 3 3
23 3 3
24 3 3
25 3 3
1 4 3
2 4 3
3 4 3
4 4 3
5 4 3
6 4 3
7 4 3
8 4 3
9 4 3
10 4 3
11 4 3
12 4 3
13 4 3
14 4 3
15 4 3
16 4 3
17 4 3
18 4 3
19 4 3
20 4 3
21 4 3
22 4 3
23 4 3
24 4 3
25 4 3
1 5 3
2 5 3
3 5 3
4 5 3
5 5 3
6 5 3
7 5 3
8 5 3
9 5 3
10 5 3
11 5 3
12 5 3
13 5 3
14 5 3
15 5 3
[...]
POINT_DATA 15625 
SCALARS density float 1 
LOOKUP_TABLE default 
0.996840
0.996502
0.996328
0.996290
0.996371
0.996559
0.996845
0.997220
0.997673
0.998194
0.998767
0.999376
1.000006
1.000636
1.001250
1.001830
1.002359
1.002823
1.003208
1.003504
1.003699
1.003786
1.003750
1.003574
1.003228
0.996480
0.996197
0.996037
0.996011
0.996108
0.996318
0.996631
0.997037
0.997524
0.998080
0.998691
0.999339
1.000008
1.000678
1.001331
1.001948
1.002513
1.003011
1.003427
1.003750
1.003968
1.004071
1.004047
1.003885
1.003595
0.996221
0.995945
0.995796
0.995783
0.995896
0.996125
0.996461
0.996892
0.997406
0.997992
0.998632
0.999311
1.000010
1.000710
1.001394
1.002041
1.002635
1.003160
1.003601
1.003947
1.004185
1.004304
1.004293
1.004142
1.003861
0.996022
0.995747
0.995605
0.995603
0.995731
0.995977
0.996331
0.996782
0.997318
0.997925
0.998588
0.999290
1.000012
1.000735
1.001441
1.002110
1.002726
1.003273
1.003735
1.004099
1.004354
1.004487
1.004487
1.004344
1.004063
0.995862
0.995588
0.995452
0.995460
0.995600
0.995860
0.996230
0.996698
0.997251
0.997875
0.998556
0.999274
1.000013
1.000754
1.001476
1.002163
1.002796
1.003360
1.003838
1.004218
1.004487
1.004633
1.004643
1.004506
1.004227
0.995729
0.995457
0.995327
0.995342
0.995493
0.995766
0.996149
0.996631
0.997198
0.997836
0.998530
0.999262
1.000015
1.000768
1.001504
1.002205
1.002852
1.003429
1.003921
1.004314
1.004595
1.004752
1.004771
1.004638
1.004362
0.995618
0.995349
0.995223
0.995246
0.995405
0.995689
0.996083
0.996576
0.997155
0.997805
0.998510
0.999253
1.000016
1.000780
1.001527
1.002238
1.002896
1.003485
1.003988
1.004392
1.004684
1.004850
1.004876
1.004749
1.004475
0.995526
0.995259
0.995137
0.995166
0.995333
0.995625
0.996029
0.996532
0.997121
0.997780
0.998494
0.999245
1.000017
1.000789
1.001545
1.002265
1.002932
1.003530
1.004043
1.004457
1.004757
1.004931
1.004963
1.004840
1.004569
0.995450
0.995186
0.995068
0.995102
0.995275
0.995574
0.995986
0.996497
0.997093
0.997760
0.998481
0.999239
1.000017
1.000797
1.001559
1.002286
1.002961
1.003566
1.004087
1.004508
1.004816
1.004996
1.005033
1.004913
1.004645
0.995392
0.995129
0.995014
0.995052
0.995230
0.995535
0.995953
0.996469
0.997072
0.997744
0.998471
0.999235
1.000018
1.000802
1.001570
1.002302
1.002983
1.003594
1.004121
1.004548
1.004862
1.005046
1.005087
1.004971
1.004704
0.995350
0.995089
0.994975
0.995016
0.995198
0.995507
0.995929
0.996450
0.997056
0.997733
0.998464
0.999231
1.000018
1.000806
1.001577
1.002314
1.002998
1.003614
1.004145
1.004576
1.004894
1.005082
1.005126
1.005012
1.004747
0.995324
0.995065
0.994952
0.994995
0.995179
0.995490
0.995914
0.996438
0.997047
0.997726
0.998460
0.999229
1.000018
1.000809
1.001582
1.002321
1.003008
1.003626
1.004159
1.004593
1.004913
1.005104
1.005149
1.005036
1.004773
0.995316
0.995056
0.994945
0.994988
0.995173
0.995485
0.995910
0.996434
0.997044
0.997724
0.998458
0.999229
1.000019
1.000809
1.001584
1.002323
1.003011
1.003630
1.004164
1.004599
1.004920
1.005111
1.005157
1.005044
1.004781
0.995324
0.995065
0.994952
0.994995
0.995179
0.995490
0.995914
0.996438
0.997047
0.997726
0.998460
0.999229
1.000018
1.000809
1.001582
1.002321
1.003008
1.003626
1.004159
1.004593
1.004913
1.005104
1.005149
1.005036
1.004773
0.995350
0.995089
0.994975
0.995016
0.995198
0.995507
0.995929
0.996450
0.997056
0.997733
0.998464
0.999231
1.000018
1.000806
1.001577
1.002314
1.002998
1.003614
1.004145
1.004576
1.004894
1.005082
1.005126
1.005012
1.004747
0.995392
0.995129
0.995014
0.995052
0.995230
0.995535
0.995953
0.996469
0.997072
0.997744
0.998471
0.999235
1.000018
1.000802
1.001570
1.002302
1.002983
1.003594
1.004121
1.004548
1.004862
1.005046
1.005087
1.004971
1.004704
0.995450
0.995186
0.995068
0.995102
0.995275
0.995574
0.995986
0.996497
0.997093
0.997760
0.998481
0.999239
1.000017
1.000797
1.001559
1.002286
1.002961
1.003566
1.004087
1.004508
1.004816
1.004996
1.005033
1.004913
1.004645
0.995526
0.995259
0.995137
0.995166
0.995333
0.995625
0.996029
0.996532
0.997121
0.997780
0.998494
0.999245
1.000017
1.000789
1.001545
1.002265
1.002932
1.003530
1.004043
1.004457
1.004757
1.004931
1.004963
1.004840
1.004569
0.995618
0.995349
0.995223
0.995246
0.995405
0.995689
0.996083
0.996576
0.997155
0.997805
0.998510
0.999253
1.000016
1.000780
1.001527
1.002238
1.002896
1.003485
1.003988
1.004392
1.004684
1.004850
1.004876
1.004749
1.004475
0.995729
0.995457
0.995327
0.995342
0.995493
0.995766
0.996149
0.996631
0.997198
0.997836
0.998530
0.999262
1.000015
1.000768
1.001504
1.002205
1.002852
1.003429
1.003921
1.004314
1.004595
1.004752
1.004771
1.004638
1.004362
0.995862
0.995588
0.995452
0.995460
0.995600
0.995860
0.996230
0.996698
0.997251
0.997875
0.998556
0.999274
1.000013
1.000754
1.001476
1.002163
1.002796
1.003360
1.003838
1.004218
1.004487
1.004633
1.004643
1.004506
1.004227
0.996022
0.995747
0.995605
0.995603
0.995731
0.995977
0.996331
0.996782
0.997318
0.997925
0.998588
0.999290
1.000012
1.000735
1.001441
1.002110
1.002726
1.003273
1.003735
1.004099
1.004354
1.004487
1.004487
1.004344
1.004063
0.996221
0.995945
0.995796
0.995783
0.995896
0.996125
0.996461
0.996892
0.997406
0.997992
0.998632
0.999311
1.000010
1.000710
1.001394
1.002041
1.002635
1.003160
1.003601
1.003947
1.004185
1.004304
1.004293
1.004142
1.003861
0.996480
0.996197
0.996037
0.996011
0.996108
0.996318
0.996631
0.997037
0.997524
0.998080
0.998691
0.999339
1.000008
1.000678
1.001331
1.001948
1.002513
1.003011
1.003427
1.003750
1.003968
1.004071
1.004047
1.003885
1.003595
0.996840
0.996502
0.996328
0.996290
0.996371
0.996559
0.996845
0.997220
0.997673
0.998194
0.998767
0.999376
1.000006
1.000636
1.001250
1.001830
1.002359
1.002823
1.003208
1.003504
1.003699
1.003786
1.003750
1.003574
1.003228
0.996503
0.996248
0.996114
0.996104
0.996208
0.996418
0.996726
0.997123
0.997598
0.998139
0.998731
0.999360
1.000008
1.000657
1.001289
1.001888
1.002437
1.002921
1.003328
1.003645
1.003862
1.003972
1.003964
1.003829
1.003569
0.996234
0.996054
0.995948
0.995951
0.996067
0.996292
0.996616
0.997030
0.997524
0.998084
0.998695
0.999343
1.000009
1.000677
1.001328
1.001946
1.002514
1.003016
1.003440
1.003773
1.004005
1.004127
1.004133
1.004026
1.003843
0.996016
0.995858
0.995774
0.995794
0.995925
0.996165
0.996507
0.996939
0.997451
0.998030
0.998660
0.999326
1.000011
1.000698
1.001368
1.002004
1.002590
1.003111
1.003552
1.003902
1.004150
1.004287
1.004309
1.004224
1.004065
0.995841
0.995689
0.995618
0.995652
0.995798
0.996053
0.996410
0.996859
0.997387
0.997983
0.998630
0.999312
1.000013
1.000716
1.001402
1.002054
1.002657
1.003194
1.003651
1.004017
1.004279
1.004431
1.004468
1.004396
1.004242
0.995696
0.995548
0.995485
0.995530
0.995689
0.995958
0.996329
0.996792
0.997335
0.997944
0.998604
0.999300
1.000015
1.000730
1.001429
1.002096
1.002712
1.003263
1.003735
1.004114
1.004390
1.004554
1.004602
1.004539
1.004389
0.995576
0.995431
0.995374
0.995429
0.995598
0.995878
0.996261
0.996737
0.997292
0.997913
0.998584
0.999291
1.000016
1.000742
1.001452
1.002129
1.002757
1.003320
1.003804
1.004195
1.004482
1.004657
1.004714
1.004658
1.004511
0.995474
0.995333
0.995282
0.995344
0.995523
0.995813
0.996206
0.996692
0.997257
0.997887
0.998568
0.999284
1.000017
1.000751
1.001470
1.002156
1.002793
1.003366
1.003860
1.004261
1.004559
1.004742
1.004807
1.004756
1.004613
0.995390
0.995252
0.995206
0.995275
0.995461
0.995760
0.996162
0.996656
0.997229
0.997867
0.998556
0.999278
1.000018
1.000759
1.001484
1.002177
1.002822
1.003403
1.003905
1.004315
1.004621
1.004812
1.004883
1.004838
1.004698
0.995322
0.995187
0.995146
0.995219
0.995412
0.995717
0.996126
0.996627
0.997207
0.997852
0.998546
0.999273
1.000019
1.000765
1.001495
1.002194
1.002845
1.003433
1.003942
1.004359
1.004671
1.004868
1.004944
1.004903
1.004767
0.995269
0.995137
0.995099
0.995177
0.995374
0.995684
0.996099
0.996605
0.997190
0.997840
0.998538
0.999270
1.000019
1.000769
1.001504
1.002207
1.002862
1.003455
1.003969
1.004391
1.004709
1.004911
1.004992
1.004954
1.004820
0.995231
0.995101
0.995065
0.995146
0.995347
0.995661
0.996080
0.996590
0.997179
0.997831
0.998533
0.999268
1.000019
1.000772
1.001510
1.002216
1.002875
1.003471
1.003989
1.004415
1.004736
1.004941
1.005025
1.004990
1.004858
0.995209
0.995079
0.995045
0.995128
0.995331
0.995647
0.996068
0.996581
0.997172
0.997826
0.998530
0.999266
1.000020
1.000774
1.001513
1.002221
1.002882
1.003480
1.004000
1.004429
1.004752
1.004960
1.005045
1.005011
1.004881
0.995201
0.995072
0.995039
0.995122
0.995325
0.995643
0.996064
0.996578
0.997169
0.997825
0.998529
0.999266
1.000020
1.000775
1.001514
1.002223
1.002884
1.003483
1.004004
1.004433
1.004757
1.004966
1.005052
1.005018
1.004889
0.995209
0.995079
0.995045
0.995128
0.995331
0.995647
0.996068
0.996581
0.997172
0.997826
0.998530
0.999266
1.000020
1.000774
1.001513
1.002221
1.002882
1.003480
1.004000
1.004429
1.004752
1.004960
1.005045
1.005011
1.004881
0.995231
0.995101
0.995065
0.995146
0.995347
0.995661
0.996080
0.996590
0.997179
0.997831
0.998533
0.999268
1.000019
1.000772
1.001510
1.002216
1.002875
1.003471
1.003989
1.004415
1.004736
1.004941
1.005025
1.004990
1.004858
0.995269
0.995137
0.995099
0.995177
0.995374
0.995684
0.996099
0.996605
0.997190
0.997840
0.998538
0.999270
1.000019
1.000769
1.001504
1.002207
1.002862
1.003455
1.003969
1.004391
1.004709
1.004911
1.004992
1.004954
1.004820
0.995322
0.995187
0.995146
0.995219
0.995412
0.995717
0.996126
0.996627
0.997207
0.997852
0.998546
0.999273
1.000019
1.000765
1.001495
1.002194
1.002845
1.003433
1.003942
1.004359
1.004671
1.004868
1.004944
1.004903
1.004767
0.995390
0.995252
0.995206
0.995275
0.995461
0.995760
0.996162
0.996656
0.997229
0.997867
0.998556
0.999278
1.000018
1.000759
1.001484
1.002177
1.002822
1.003403
1.003905
1.004315
1.004621
1.004812
1.004883
1.004838
1.004698
0.995474
0.995333
0.995282
0.995344
0.995523
0.995813
0.996206
0.996692
0.997257
0.997887
0.998568
0.999284
1.000017
1.000751
1.001470
1.002156
1.002793
1.003366
1.003860
1.004261
1.004559
1.004742
1.004807
1.004756
1.004613
0.995576
0.995431
0.995374
0.995429
0.995598
0.995878
0.996261
0.996737
0.997292
0.997913
0.998584
0.999291
1.000016
1.000742
1.001452
1.002129
1.002757
1.003320
1.003804
1.004195
1.004482
1.004657
1.004714
1.004658
1.004511
0.995696
0.995548
0.995485
0.995530
0.995689
0.995958
0.996329
0.996792
0.997335
0.997944
0.998604
0.999300
1.000015
1.000730
1.001429
1.002096
1.002712
1.003263
1.003735
1.004114
1.004390
1.004554
1.004602
1.004539
1.004389
0.995841
0.995689
0.995618
0.995652
0.995798
0.996053
0.996410
0.996859
0.997387
0.997983
0.998630
0.999312
1.000013
1.000716
1.001402
1.002054
1.002657
1.003194
1.003651
1.004017
1.004279
1.004431
1.004468
1.004396
1.004242
0.996016
0.995858
0.995774
0.995794
0.995925
0.996165
0.996507
0.996939
0.997451
0.998030
0.998660
0.999326
1.000011
1.000698
1.001368
1.002004
1.002590
1.003111
1.003552
1.003902
1.004150
1.004287
1.004309
1.004224
1.004065
0.996234
0.996054
0.995948
0.995951
0.996067
0.996292
0.996616
0.997030
0.997524
0.998084
0.998695
0.999343
1.000009
1.000677
1.001328
1.001946
1.002514
1.003016
1.003440
1.003773
1.004005
1.004127
1.004133
1.004026
1.003843
0.996503
0.996248
0.996114
0.996104
0.996208
0.996418
0.996726
0.997123
0.997598
0.998139
0.998731
0.999360
1.000008
1.000657
1.001289
1.001888
1.002437
1.002921
1.003328
1.003645
1.003862
1.003972
1.003964
1.003829
1.003569
0.996200
0.995988
0.995899
0.995927
0.996064
0.996304
0.996638
0.997058
0.997552
0.998109
0.998714
0.999353
1.000009
1.000666
1.001308
1.001918
1.002482
1.002984
1.003412
1.003754
1.004001
1.004144
1.004175
1.004086
1.003871
0.995981
0.995851
0.995795
0.995838
0.995987
0.996237
0.996583
0.997013
0.997518
0.998085
0.998699
0.999346
1.000011
1.000676
1.001326
1.001945
1.002518
1.003030
1.003468
1.003821
1.004078
1.004232
1.004278
1.004222
1.004092
0.995811
0.995709
0.995676
0.995737
0.995899
0.996163
0.996520
0.996963
0.997480
0.998058
0.998682
0.999339
1.000012
1.000687
1.001346
1.001975
1.002559
1.003082
1.003532
1.003897
1.004167
1.004334
1.004397
1.004366
1.004263
0.995673
0.995580
0.995562
0.995637
0.995813
0.996090
0.996460
0.996915
0.997443
0.998031
0.998666
0.999332
1.000014
1.000697
1.001366
1.002005
1.002598
1.003133
1.003594
1.003971
1.004253
1.004434
1.004512
1.004495
1.004401
0.995559
0.995469
0.995461
0.995548
0.995736
0.996025
0.996406
0.996872
0.997410
0.998008
0.998651
0.999325
1.000015
1.000707
1.001383
1.002030
1.002633
1.003177
1.003649
1.004038
1.004331
1.004524
1.004613
1.004606
1.004516
0.995462
0.995377
0.995376
0.995472
0.995670
0.995969
0.996361
0.996836
0.997383
0.997989
0.998639
0.999320
1.000017
1.000714
1.001397
1.002051
1.002662
1.003214
1.003696
1.004094
1.004398
1.004600
1.004699
1.004698
1.004613
0.995381
0.995300
0.995305
0.995409
0.995616
0.995923
0.996324
0.996808
0.997362
0.997974
0.998630
0.999316
1.000018
1.000720
1.001408
1.002068
1.002684
1.003244
1.003734
1.004140
1.004453
1.004663
1.004769
1.004775
1.004693
0.995314
0.995237
0.995247
0.995357
0.995572
0.995887
0.996295
0.996785
0.997345
0.997963
0.998624
0.999313
1.000018
1.000724
1.001416
1.002080
1.002702
1.003268
1.003764
1.004177
1.004497
1.004715
1.004827
1.004837
1.004760
0.995261
0.995187
0.995201
0.995317
0.995537
0.995858
0.996272
0.996767
0.997333
0.997954
0.998618
0.999311
1.000019
1.000727
1.001422
1.002090
1.002716
1.003286
1.003787
1.004206
1.004532
1.004755
1.004872
1.004887
1.004814
0.995219
0.995148
0.995166
0.995286
0.995510
0.995836
0.996254
0.996754
0.997323
0.997948
0.998615
0.999310
1.000019
1.000729
1.001427
1.002096
1.002725
1.003299
1.003804
1.004228
1.004558
1.004786
1.004907
1.004926
1.004855
0.995190
0.995121
0.995141
0.995264
0.995492
0.995821
0.996243
0.996746
0.997317
0.997944
0.998612
0.999309
1.000020
1.000731
1.001429
1.002101
1.002732
1.003308
1.003816
1.004243
1.004576
1.004807
1.004932
1.004953
1.004884
0.995172
0.995104
0.995127
0.995251
0.995481
0.995812
0.996236
0.996740
0.997313
0.997942
0.998611
0.999308
1.000020
1.000732
1.001431
1.002104
1.002736
1.003314
1.003823
1.004252
1.004587
1.004820
1.004946
1.004969
1.004902
0.995166
0.995099
0.995122
0.995247
0.995477
0.995809
0.996233
0.996739
0.997312
0.997941
0.998611
0.999308
1.000020
1.000732
1.001432
1.002104
1.002737
1.003315
1.003826
1.004255
1.004591
1.004824
1.004951
1.004974
1.004908
0.995172
0.995104
0.995127
0.995251
0.995481
0.995812
0.996236
0.996740
0.997313
0.997942
0.998611
0.999308
1.000020
1.000732
1.001431
1.002104
1.002736
1.003314
1.003823
1.004252
1.004587
1.004820
1.004946
1.004969
1.004902
0.995190
0.995121
0.995141
0.995264
0.995492
0.995821
0.996243
0.996746
0.997317
0.997944
0.998612
0.999309
1.000020
1.000731
1.001429
1.002101
1.002732
1.003308
1.003816
1.004243
1.004576
1.004807
1.004932
1.004953
1.004884
0.995219
0.995148
0.995166
0.995286
0.995510
0.995836
0.996254
0.996754
0.997323
0.997948
0.998615
0.999310
1.000019
1.000729
1.001427
1.002096
1.002725
1.003299
1.003804
1.004228
1.004558
1.004786
1.004907
1.004926
1.004855
0.995261
0.995187
0.995201
0.995317
0.995537
0.995858
0.996272
0.996767
0.997333
0.997954
0.998618
0.999311
1.000019
1.000727
1.001422
1.002090
1.002716
1.003286
1.003787
1.004206
1.004532
1.004755
1.004872
1.004887
1.004814
0.995314
0.995237
0.995247
0.995357
0.995572
0.995887
0.996295
0.996785
0.997345
0.997963
0.998624
0.999313
1.000018
1.000724
1.001416
1.002080
1.002702
1.003268
1.003764
1.004177
1.004497
1.004715
1.004827
1.004837
1.004760
0.995381
0.995300
0.995305
0.995409
0.995616
0.995923
0.996324
0.996808
0.997362
0.997974
0.998630
0.999316
1.000018
1.000720
1.001408
1.002068
1.002684
1.003244
1.003734
1.004140
1.004453
1.004663
1.004769
1.004775
1.004693
0.995462
0.995377
0.995376
0.995472
0.995670
0.995969
0.996361
0.996836
0.997383
0.997989
0.998639
0.999320
1.000017
1.000714
1.001397
1.002051
1.002662
1.003214
1.003696
1.004094
1.004398
1.004600
1.004699
1.004698
1.004613
0.995559
0.995469
0.995461
0.995548
0.995736
0.996025
0.996406
0.996872
0.997410
0.998008
0.998651
0.999325
1.000015
1.000707
1.001383
1.002030
1.002633
1.003177
1.003649
1.004038
1.004331
1.004524
1.004613
1.004606
1.004516
0.995673
0.995580
0.995562
0.995637
0.995813
0.996090
0.996460
0.996915
0.997443
0.998031
0.998666
0.999332
1.000014
1.000697
1.001366
1.002005
1.002598
1.003133
1.003594
1.003971
1.004253
1.004434
1.004512
1.004495
1.004401
0.995811
0.995709
0.995676
0.995737
0.995899
0.996163
0.996520
0.996963
0.997480
0.998058
0.998682
0.999339
1.000012
1.000687
1.001346
1.001975
1.002559
1.003082
1.003532
1.003897
1.004167
1.004334
1.004397
1.004366
1.004263
0.995981
0.995851
0.995795
0.995838
0.995987
0.996237
0.996583
0.997013
0.997518
0.998085
0.998699
0.999346
1.000011
1.000676
1.001326
1.001945
1.002518
1.003030
1.003468
1.003821
1.004078
1.004232
1.004278
1.004222
1.004092
0.996200
0.995988
0.995899
0.995927
0.996064
0.996304
0.996638
0.997058
0.997552
0.998109
0.998714
0.999353
1.000009
1.000666
1.001308
1.001918
1.002482
1.002984
1.003412
1.003754
1.004001
1.004144
1.004175
1.004086
1.003871
0.995880
0.995709
0.995663
0.995735
0.995912
0.996189
0.996555
0.997001
0.997516
0.998088
0.998704
0.999349
1.000009
1.000671
1.001318
1.001938
1.002515
1.003036
1.003489
1.003862
1.004144
1.004328
1.004402
1.004359
1.004186
0.995708
0.995615
0.995604
0.995691
0.995878
0.996163
0.996536
0.996989
0.997509
0.998085
0.998703
0.999350
1.000011
1.000673
1.001322
1.001943
1.002524
1.003049
1.003507
1.003887
1.004177
1.004369
1.004459
1.004450
1.004357
0.995586
0.995521
0.995532
0.995636
0.995836
0.996131
0.996512
0.996972
0.997498
0.998079
0.998700
0.999349
1.000013
1.000677
1.001328
1.001952
1.002536
1.003067
1.003532
1.003919
1.004218
1.004422
1.004529
1.004542
1.004477
0.995492
0.995436
0.995462
0.995580
0.995792
0.996097
0.996488
0.996955
0.997487
0.998072
0.998697
0.999349
1.000014
1.000680
1.001334
1.001961
1.002550
1.003086
1.003558
1.003953
1.004262
1.004478
1.004597
1.004625
1.004570
0.995415
0.995364
0.995400
0.995528
0.995751
0.996065
0.996465
0.996939
0.997477
0.998066
0.998694
0.999348
1.000016
1.000684
1.001339
1.001970
1.002562
1.003103
1.003582
1.003985
1.004303
1.004528
1.004658
1.004695
1.004645
0.995351
0.995304
0.995347
0.995484
0.995716
0.996039
0.996446
0.996926
0.997469
0.998062
0.998692
0.999348
1.000017
1.000686
1.001343
1.001976
1.002571
1.003117
1.003601
1.004011
1.004337
1.004571
1.004710
1.004753
1.004707
0.995299
0.995256
0.995304
0.995448
0.995688
0.996018
0.996431
0.996917
0.997464
0.998060
0.998692
0.999349
1.000018
1.000687
1.001345
1.001979
1.002577
1.003127
1.003616
1.004032
1.004365
1.004606
1.004751
1.004800
1.004758
0.995256
0.995217
0.995270
0.995420
0.995666
0.996002
0.996421
0.996911
0.997461
0.998059
0.998692
0.999349
1.000018
1.000688
1.001346
1.001981
1.002581
1.003134
1.003627
1.004048
1.004386
1.004633
1.004784
1.004838
1.004799
0.995222
0.995186
0.995244
0.995399
0.995650
0.995991
0.996414
0.996907
0.997460
0.998059
0.998693
0.999350
1.000019
1.000688
1.001346
1.001981
1.002583
1.003138
1.003634
1.004059
1.004402
1.004654
1.004809
1.004867
1.004831
0.995197
0.995163
0.995225
0.995383
0.995638
0.995983
0.996409
0.996906
0.997460
0.998060
0.998694
0.999351
1.000019
1.000687
1.001345
1.001981
1.002583
1.003140
1.003638
1.004067
1.004413
1.004668
1.004827
1.004889
1.004856
0.995179
0.995148
0.995211
0.995373
0.995630
0.995978
0.996407
0.996905
0.997460
0.998061
0.998695
0.999352
1.000019
1.000687
1.001344
1.001980
1.002583
1.003141
1.003641
1.004071
1.004420
1.004678
1.004840
1.004904
1.004873
0.995168
0.995138
0.995204
0.995367
0.995626
0.995975
0.996405
0.996904
0.997461
0.998062
0.998696
0.999352
1.000019
1.000687
1.001344
1.001980
1.002583
1.003141
1.003642
1.004074
1.004424
1.004684
1.004847
1.004912
1.004883
0.995164
0.995135
0.995201
0.995365
0.995625
0.995974
0.996405
0.996904
0.997461
0.998062
0.998696
0.999352
1.000019
1.000687
1.001344
1.001980
1.002583
1.003141
1.003643
1.004075
1.004426
1.004686
1.004850
1.004915
1.004887
0.995168
0.995138
0.995204
0.995367
0.995626
0.995975
0.996405
0.996904
0.997461
0.998062
0.998696
0.999352
1.000019
1.000687
1.001344