# vtk DataFile Version 2.0
generated by CFD-lab course output 
ASCII

DATASET STRUCTURED_GRID
DIMENSIONS  25 25 25 
POINTS 15625 float

1 1 1
2 1 1
3 1 1
4 1 1
5 1 1
6 1 1
7 1 1
8 1 1
9 1 1
10 1 1
11 1 1
12 1 1
13 1 1
14 1 1
15 1 1
16 1 1
17 1 1
18 1 1
19 1 1
20 1 1
21 1 1
22 1 1
23 1 1
24 1 1
25 1 1
1 2 1
2 2 1
3 2 1
4 2 1
5 2 1
6 2 1
7 2 1
8 2 1
9 2 1
10 2 1
11 2 1
12 2 1
13 2 1
14 2 1
15 2 1
16 2 1
17 2 1
18 2 1
19 2 1
20 2 1
21 2 1
22 2 1
23 2 1
24 2 1
25 2 1
1 3 1
2 3 1
3 3 1
4 3 1
5 3 1
6 3 1
7 3 1
8 3 1
9 3 1
10 3 1
11 3 1
12 3 1
13 3 1
14 3 1
15 3 1
16 3 1
17 3 1
18 3 1
19 3 1
20 3 1
21 3 1
22 3 1
23 3 1
24 3 1
25 3 1
1 4 1
2 4 1
3 4 1
4 4 1
5 4 1
6 4 1
7 4 1
8 4 1
9 4 1
10 4 1
11 4 1
12 4 1
13 4 1
14 4 1
15 4 1
16 4 1
17 4 1
18 4 1
19 4 1
20 4 1
21 4 1
22 4 1
23 4 1
24 4 1
25 4 1
1 5 1
2 5 1
3 5 1
4 5 1
5 5 1
6 5 1
7 5 1
8 5 1
9 5 1
10 5 1
11 5 1
12 5 1
13 5 1
14 5 1
15 5 1
16 5 1
17 5 1
18 5 1
19 5 1
20 5 1
21 5 1
22 5 1
23 5 1
24 5 1
25 5 1
1 6 1
2 6 1
3 6 1
4 6 1
5 6 1
6 6 1
7 6 1
8 6 1
9 6 1
10 6 1
11 6 1
12 6 1
13 6 1
14 6 1
15 6 1
16 6 1
17 6 1
18 6 1
19 6 1
20 6 1
21 6 1
22 6 1
23 6 1
24 6 1
25 6 1
1 7 1
2 7 1
3 7 1
4 7 1
5 7 1
6 7 1
7 7 1
8 7 1
9 7 1
10 7 1
11 7 1
12 7 1
13 7 1
14 7 1
15 7 1
16 7 1
17 7 1
18 7 1
19 7 1
20 7 1
21 7 1
22 7 1
23 7 1
24 7 1
25 7 1
1 8 1
2 8 1
3 8 1
4 8 1
5 8 1
6 8 1
7 8 1
8 8 1
9 8 1
10 8 1
11 8 1
12 8 1
13 8 1
14 8 1
15 8 1
16 8 1
17 8 1
18 8 1
19 8 1
20 8 1
21 8 1
22 8 1
23 8 1
24 8 1
25 8 1
1 9 1
2 9 1
3 9 1
4 9 1
5 9 1
6 9 1
7 9 1
8 9 1
9 9 1
10 9 1
11 9 1
12 9 1
13 9 1
14 9 1
15 9 1
16 9 1
17 9 1
18 9 1
19 9 1
20 9 1
21 9 1
22 9 1
23 9 1
24 9 1
25 9 1
1 10 1
2 10 1
3 10 1
4 10 1
5 10 1
6 10 1
7 10 1
8 10 1
9 10 1
10 10 1
11 10 1
12 10 1
13 10 1
14 10 1
15 10 1
16 10 1
17 10 1
18 10 1
19 10 1
20 10 1
21 10 1
22 10 1
23 10 1
24 10 1
25 10 1
1 11 1
2 11 1
3 11 1
4 11 1
5 11 1
6 11 1
7 11 1
8 11 1
9 11 1
10 11 1
11 11 1
12 11 1
13 11 1
14 11 1
15 11 1
16 11 1
17 11 1
18 11 1
19 11 1
20 11 1
21 11 1
22 11 1
23 11 1
24 11 1
25 11 1
1 12 1
2 12 1
3 12 1
4 12 1
5 12 1
6 12 1
7 12 1
8 12 1
9 12 1
10 12 1
11 12 1
12 12 1
13 12 1
14 12 1
15 12 1
16 12 1
17 12 1
18 12 1
19 12 1
20 12 1
21 12 1
22 12 1
23 12 1
24 12 1
25 12 1
1 13 1
2 13 1
3 13 1
4 13 1
5 13 1
6 13 1
7 13 1
8 13 1
9 13 1
10 13 1
11 13 1
12 13 1
13 13 1
14 13 1
15 13 1
16 13 1
17 13 1
18 13 1
19 13 1
20 13 1
21 13 1
22 13 1
23 13 1
24 13 1
25 13 1
1 14 1
2 14 1
3 14 1
4 14 1
5 14 1
6 14 1
7 14 1
8 14 1
9 14 1
10 14 1
11 14 1
12 14 1
13 14 1
14 14 1
15 14 1
16 14 1
17 14 1
18 14 1
19 14 1
20 14 1
21 14 1
22 14 1
23 14 1
24 14 1
25 14 1
1 15 1
2 15 1
3 15 1
4 15 1
5 15 1
6 15 1
7 15 1
8 15 1
9 15 1
10 15 1
11 15 1
12 15 1
13 15 1
14 15 1
15 15 1
16 15 1
17 15 1
18 15 1
19 15 1
20 15 1
21 15 1
22 15 1
23 15 1
24 15 1
25 15 1
1 16 1
2 16 1
3 16 1
4 16 1
5 16 1
6 16 1
7 16 1
8 16 1
9 16 1
10 16 1
11 16 1
12 16 1
13 16 1
14 16 1
15 16 1
16 16 1
17 16 1
18 16 1
19 16 1
20 16 1
21 16 1
22 16 1
23 16 1
24 16 1
25 16 1
1 17 1
2 17 1
3 17 1
4 17 1
5 17 1
6 17 1
7 17 1
8 17 1
9 17 1
10 17 1
11 17 1
12 17 1
13 17 1
14 17 1
15 17 1
16 17 1
17 17 1
18 17 1
19 17 1
20 17 1
21 17 1
22 17 1
23 17 1
24 17 1
25 17 1
1 18 1
2 18 1
3 18 1
4 18 1
5 18 1
6 18 1
7 18 1
8 18 1
9 18 1
10 18 1
11 18 1
12 18 1
13 18 1
14 18 1
15 18 1
16 18 1
17 18 1
18 18 1
19 18 1
20 18 1
21 18 1
22 18 1
23 18 1
24 18 1
25 18 1
1 19 1
2 19 1
3 19 1
4 19 1
5 19 1
6 19 1
7 19 1
8 19 1
9 19 1
10 19 1
11 19 1
12 19 1
13 19 1
14 19 1
15 19 1
16 19 1
17 19 1
18 19 1
19 19 1
20 19 1
21 19 1
22 19 1
23 19 1
24 19 1
25 19 1
1 20 1
2 20 1
3 20 1
4 20 1
5 20 1
6 20 1
7 20 1
8 20 1
9 20 1
10 20 1
11 20 1
12 20 1
13 20 1
14 20 1
15 20 1
16 20 1
17 20 1
18 20 1
19 20 1
20 20 1
21 20 1
22 20 1
23 20 1
24 20 1
25 20 1
1 21 1
2 21 1
3 21 1
4 21 1
5 21 1
6 21 1
7 21 1
8 21 1
9 21 1
10 21 1
11 21 1
12 21 1
13 21 1
14 21 1
15 21 1
16 21 1
17 21 1
18 21 1
19 21 1
20 21 1
21 21 1
22 21 1
23 21 1
24 21 1
25 21 1
1 22 1
2 22 1
3 22 1
4 22 1
5 22 1
6 22 1
7 22 1
8 22 1
9 22 1
10 22 1
11 22 1
12 22 1
13 22 1
14 22 1
15 22 1
16 22 1
17 22 1
18 22 1
19 22 1
20 22 1
21 22 1
22 22 1
23 22 1
24 22 1
25 22 1
1 23 1
2 23 1
3 23 1
4 23 1
5 23 1
6 23 1
7 23 1
8 23 1
9 23 1
10 23 1
11 23 1
12 23 1
13 23 1
14 23 1
15 23 1
16 23 1
17 23 1
18 23 1
19 23 1
20 23 1
21 23 1
22 23 1
23 23 1
24 23 1
25 23 1
1 24 1
2 24 1
3 24 1
4 24 1
5 24 1
6 24 1
7 24 1
8 24 1
9 24 1
10 24 1
11 24 1
12 24 1
13 24 1
14 24 1
15 24 1
16 24 1
17 24 1
18 24 1
19 24 1
20 24 1
21 24 1
22 24 1
23 24 1
24 24 1
25 24 1
1 25 1
2 25 1
3 25 1
4 25 1
5 25 1
6 25 1
7 25 1
8 25 1
9 25 1
10 25 1
11 25 1
12 25 1
13 25 1
14 25 1
15 25 1
16 25 1
17 25 1
18 25 1
19 25 1
20 25 1
21 25 1
22 25 1
23 25 1
24 25 1
25 25 1
1 1 2
2 1 2
3 1 2
4 1 2
5 1 2
6 1 2
7 1 2
8 1 2
9 1 2
10 1 2
11 1 2
12 1 2
13 1 2
14 1 2
15 1 2
16 1 2
17 1 2
18 1 2
19 1 2
20 1 2
21 1 2
22 1 2
23 1 2
24 1 2
25 1 2
1 2 2
2 2 2
3 2 2
4 2 2
5 2 2
6 2 2
7 2 2
8 2 2
9 2 2
10 2 2
11 2 2
12 2 2
13 2 2
14 2 2
15 2 2
16 2 2
17 2 2
18 2 2
19 2 2
20 2 2
21 2 2
22 2 2
23 2 2
24 2 2
25 2 2
1 3 2
2 3 2
3 3 2
4 3 2
5 3 2
6 3 2
7 3 2
8 3 2
9 3 2
10 3 2
11 3 2
12 3 2
13 3 2
14 3 2
15 3 2
16 3 2
17 3 2
18 3 2
19 3 2
20 3 2
21 3 2
22 3 2
23 3 2
24 3 2
25 3 2
1 4 2
2 4 2
3 4 2
4 4 2
5 4 2
6 4 2
7 4 2
8 4 2
9 4 2
10 4 2
11 4 2
12 4 2
13 4 2
14 4 2
15 4 2
16 4 2
17 4 2
18 4 2
19 4 2
20 4 2
21 4 2
22 4 2
23 4 2
24 4 2
25 4 2
1 5 2
2 5 2
3 5 2
4 5 2
5 5 2
6 5 2
7 5 2
8 5 2
9 5 2
10 5 2
11 5 2
12 5 2
13 5 2
14 5 2
15 5 2
16 5 2
17 5 2
18 5 2
19 5 2
20 5 2
21 5 2
22 5 2
23 5 2
24 5 2
25 5 2
1 6 2
2 6 2
3 6 2
4 6 2
5 6 2
6 6 2
7 6 2
8 6 2
9 6 2
10 6 2
11 6 2
12 6 2
13 6 2
14 6 2
15 6 2
16 6 2
17 6 2
18 6 2
19 6 2
20 6 2
21 6 2
22 6 2
23 6 2
24 6 2
25 6 2
1 7 2
2 7 2
3 7 2
4 7 2
5 7 2
6 7 2
7 7 2
8 7 2
9 7 2
10 7 2
11 7 2
12 7 2
13 7 2
14 7 2
15 7 2
16 7 2
17 7 2
18 7 2
19 7 2
20 7 2
21 7 2
22 7 2
23 7 2
24 7 2
25 7 2
1 8 2
2 8 2
3 8 2
4 8 2
5 8 2
6 8 2
7 8 2
8 8 2
9 8 2
10 8 2
11 8 2
12 8 2
13 8 2
14 8 2
15 8 2
16 8 2
17 8 2
18 8 2
19 8 2
20 8 2
21 8 2
22 8 2
23 8 2
24 8 2
25 8 2
1 9 2
2 9 2
3 9 2
4 9 2
5 9 2
6 9 2
7 9 2
8 9 2
9 9 2
10 9 2
11 9 2
12 9 2
13 9 2
14 9 2
15 9 2
16 9 2
17 9 2
18 9 2
19 9 2
20 9 2
21 9 2
22 9 2
23 9 2
24 9 2
25 9 2
1 10 2
2 10 2
3 10 2
4 10 2
5 10 2
6 10 2
7 10 2
8 10 2
9 10 2
10 10 2
11 10 2
12 10 2
13 10 2
14 10 2
15 10 2
16 10 2
17 10 2
18 10 2
19 10 2
20 10 2
21 10 2
22 10 2
23 10 2
24 10 2
25 10 2
1 11 2
2 11 2
3 11 2
4 11 2
5 11 2
6 11 2
7 11 2
8 11 2
9 11 2
10 11 2
11 11 2
12 11 2
13 11 2
14 11 2
15 11 2
16 11 2
17 11 2
18 11 2
19 11 2
20 11 2
21 11 2
22 11 2
23 11 2
24 11 2
25 11 2
1 12 2
2 12 2
3 12 2
4 12 2
5 12 2
6 12 2
7 12 2
8 12 2
9 12 2
10 12 2
11 12 2
12 12 2
13 12 2
14 12 2
15 12 2
16 12 2
17 12 2
18 12 2
19 12 2
20 12 2
21 12 2
22 12 2
23 12 2
24 12 2
25 12 2
1 13 2
2 13 2
3 13 2
4 13 2
5 13 2
6 13 2
7 13 2
8 13 2
9 13 2
10 13 2
11 13 2
12 13 2
13 13 2
14 13 2
15 13 2
16 13 2
17 13 2
18 13 2
19 13 2
20 13 2
21 13 2
22 13 2
23 13 2
24 13 2
25 13 2
1 14 2
2 14 2
3 14 2
4 14 2
5 14 2
6 14 2
7 14 2
8 14 2
9 14 2
10 14 2
11 14 2
12 14 2
13 14 2
14 14 2
15 14 2
16 14 2
17 14 2
18 14 2
19 14 2
20 14 2
21 14 2
22 14 2
23 14 2
24 14 2
25 14 2
1 15 2
2 15 2
3 15 2
4 15 2
5 15 2
6 15 2
7 15 2
8 15 2
9 15 2
10 15 2
11 15 2
12 15 2
13 15 2
14 15 2
15 15 2
16 15 2
17 15 2
18 15 2
19 15 2
20 15 2
21 15 2
22 15 2
23 15 2
24 15 2
25 15 2
1 16 2
2 16 2
3 16 2
4 16 2
5 16 2
6 16 2
7 16 2
8 16 2
9 16 2
10 16 2
11 16 2
12 16 2
13 16 2
14 16 2
15 16 2
16 16 2
17 16 2
18 16 2
19 16 2
20 16 2
21 16 2
22 16 2
23 16 2
24 16 2
25 16 2
1 17 2
2 17 2
3 17 2
4 17 2
5 17 2
6 17 2
7 17 2
8 17 2
9 17 2
10 17 2
11 17 2
12 17 2
13 17 2
14 17 2
15 17 2
16 17 2
17 17 2
18 17 2
19 17 2
20 17 2
21 17 2
22 17 2
23 17 2
24 17 2
25 17 2
1 18 2
2 18 2
3 18 2
4 18 2
5 18 2
6 18 2
7 18 2
8 18 2
9 18 2
10 18 2
11 18 2
12 18 2
13 18 2
14 18 2
15 18 2
16 18 2
17 18 2
18 18 2
19 18 2
20 18 2
21 18 2
22 18 2
23 18 2
24 18 2
25 18 2
1 19 2
2 19 2
3 19 2
4 19 2
5 19 2
6 19 2
7 19 2
8 19 2
9 19 2
10 19 2
11 19 2
12 19 2
13 19 2
14 19 2
15 19 2
16 19 2
17 19 2
18 19 2
19 19 2
20 19 2
21 19 2
22 19 2
23 19 2
24 19 2
25 19 2
1 20 2
2 20 2
3 20 2
4 20 2
5 20 2
6 20 2
7 20 2
8 20 2
9 20 2
10 20 2
11 20 2
12 20 2
13 20 2
14 20 2
15 20 2
16 20 2
17 20 2
18 20 2
19 20 2
20 20 2
21 20 2
22 20 2
23 20 2
24 20 2
25 20 2
1 21 2
2 21 2
3 21 2
4 21 2
5 21 2
6 21 2
7 21 2
8 21 2
9 21 2
10 21 2
11 21 2
12 21 2
13 21 2
14 21 2
15 21 2
16 21 2
17 21 2
18 21 2
19 21 2
20 21 2
21 21 2
22 21 2
23 21 2
24 21 2
25 21 2
1 22 2
2 22 2
3 22 2
4 22 2
5 22 2
6 22 2
7 22 2
8 22 2
9 22 2
10 22 2
11 22 2
12 22 2
13 22 2
14 22 2
15 22 2
16 22 2
17 22 2
18 22 2
19 22 2
20 22 2
21 22 2
22 22 2
23 22 2
24 22 2
25 22 2
1 23 2
2 23 2
3 23 2
4 23 2
5 23 2
6 23 2
7 23 2
8 23 2
9 23 2
10 23 2
11 23 2
12 23 2
13 23 2
14 23 2
15 23 2
16 23 2
17 23 2
18 23 2
19 23 2
20 23 2
21 23 2
22 23 2
23 23 2
24 23 2
25 23 2
1 24 2
2 24 2
3 24 2
4 24 2
5 24 2
6 24 2
7 24 2
8 24 2
9 24 2
10 24 2
11 24 2
12 24 2
13 24 2
14 24 2
15 24 2
16 24 2
17 24 2
18 24 2
19 24 2
20 24 2
21 24 2
22 24 2
23 24 2
24 24 2
25 24 2
1 25 2
2 25 2
3 25 2
4 25 2
5 25 2
6 25 2
7 25 2
8 25 2
9 25 2
10 25 2
11 25 2
12 25 2
13 25 2
14 25 2
15 25 2
16 25 2
17 25 2
18 25 2
19 25 2
20 25 2
21 25 2
22 25 2
23 25 2
24 25 2
25 25 2
1 1 3
2 1 3
3 1 3
4 1 3
5 1 3
6 1 3
7 1 3
8 1 3
9 1 3
10 1 3
11 1 3
12 1 3
13 1 3
14 1 3
15 1 3
16 1 3
17 1 3
18 1 3
19 1 3
20 1 3
21 1 3
22 1 3
23 1 3
24 1 3
25 1 3
1 2 3
2 2 3
3 2 3
4 2 3
5 2 3
6 2 3
7 2 3
8 2 3
9 2 3
10 2 3
11 2 3
12 2 3
13 2 3
14 2 3
15 2 3
16 2 3
17 2 3
18 2 3
19 2 3
20 2 3
21 2 3
22 2 3
23 2 3
24 2 3
25 2 3
1 3 3
2 3 3
3 3 3
4 3 3
5 3 3
6 3 3
7 3 3
8 3 3
9 3 3
10 3 3
11 3 3
12 3 3
13 3 3
14 3 3
15 3 3
16 3 3
17 3 3
18 3 3
19 3 3
20 3 3
21 3 3
22 3 3
23 3 3
24 3 3
25 3 3
1 4 3
2 4 3
3 4 3
4 4 3
5 4 3
6 4 3
7 4 3
8 4 3
9 4 3
10 4 3
11 4 3
12 4 3
13 4 3
14 4 3
15 4 3
16 4 3
17 4 3
18 4 3
19 4 3
20 4 3
21 4 3
22 4 3
23 4 3
24 4 3
25 4 3
1 5 3
2 5 3
3 5 3
4 5 3
5 5 3
6 5 3
7 5 3
8 5 3
9 5 3
10 5 3
11 5 3
12 5 3
13 5 3
14 5 3
15 5 3
[...]
POINT_DATA 15625 
SCALARS density float 1 
LOOKUP_TABLE default 
0.996343
0.996671
0.996909
0.997118
0.997333
0.997571
0.997839
0.998142
0.998477
0.998842
0.999230
0.999635
1.000048
1.000459
1.000860
1.001242
1.001598
1.001923
1.002215
1.002473
1.002701
1.002907
1.003110
1.003344
1.003669
0.996711
0.996980
0.997198
0.997389
0.997583
0.997796
0.998037
0.998309
0.998612
0.998944
0.999298
0.999668
1.000046
1.000423
1.000789
1.001137
1.001461
1.001755
1.002017
1.002248
1.002452
1.002638
1.002824
1.003038
1.003305
0.996986
0.997235
0.997427
0.997595
0.997767
0.997958
0.998176
0.998426
0.998706
0.999014
0.999345
0.999691
1.000045
1.000398
1.000741
1.001066
1.001366
1.001638
1.001879
1.002089
1.002272
1.002436
1.002599
1.002787
1.003034
0.997202
0.997440
0.997612
0.997758
0.997909
0.998080
0.998281
0.998512
0.998775
0.999065
0.999379
0.999708
1.000044
1.000380
1.000706
1.001014
1.001298
1.001553
1.001777
1.001970
1.002134
1.002278
1.002419
1.002588
1.002822
0.997379
0.997609
0.997766
0.997894
0.998027
0.998182
0.998366
0.998583
0.998831
0.999107
0.999406
0.999721
1.000044
1.000366
1.000678
1.000973
1.001244
1.001485
1.001695
1.001872
1.002020
1.002147
1.002271
1.002424
1.002651
0.997526
0.997751
0.997896
0.998011
0.998129
0.998270
0.998440
0.998644
0.998879
0.999143
0.999430
0.999733
1.000044
1.000355
1.000655
1.000939
1.001198
1.001427
1.001625
1.001789
1.001924
1.002036
1.002147
1.002289
1.002510
0.997649
0.997870
0.998007
0.998111
0.998218
0.998346
0.998505
0.998698
0.998922
0.999175
0.999451
0.999744
1.000045
1.000345
1.000636
1.000909
1.001158
1.001377
1.001564
1.001717
1.001840
1.001942
1.002042
1.002176
1.002393
0.997750
0.997967
0.998099
0.998195
0.998293
0.998412
0.998561
0.998744
0.998959
0.999203
0.999470
0.999754
1.000046
1.000337
1.000619
1.000884
1.001124
1.001334
1.001512
1.001657
1.001771
1.001864
1.001956
1.002085
1.002297
0.997830
0.998045
0.998172
0.998263
0.998354
0.998466
0.998608
0.998782
0.998990
0.999226
0.999486
0.999762
1.000046
1.000331
1.000605
1.000863
1.001096
1.001299
1.001470
1.001607
1.001714
1.001801
1.001888
1.002012
1.002222
0.997892
0.998104
0.998229
0.998315
0.998401
0.998508
0.998643
0.998812
0.999014
0.999244
0.999498
0.999768
1.000047
1.000326
1.000595
1.000847
1.001074
1.001272
1.001437
1.001569
1.001671
1.001753
1.001836
1.001957
1.002164
0.997935
0.998146
0.998268
0.998352
0.998435
0.998537
0.998669
0.998834
0.999031
0.999257
0.999507
0.999773
1.000048
1.000322
1.000587
1.000835
1.001059
1.001253
1.001414
1.001542
1.001640
1.001719
1.001799
1.001918
1.002124
0.997960
0.998170
0.998292
0.998374
0.998455
0.998555
0.998684
0.998847
0.999041
0.999265
0.999512
0.999776
1.000048
1.000320
1.000583
1.000828
1.001049
1.001241
1.001400
1.001526
1.001622
1.001699
1.001778
1.001896
1.002100
0.997969
0.998178
0.998299
0.998381
0.998461
0.998561
0.998689
0.998851
0.999045
0.999267
0.999514
0.999777
1.000048
1.000320
1.000582
1.000826
1.001046
1.001237
1.001395
1.001520
1.001616
1.001692
1.001771
1.001888
1.002092
0.997960
0.998170
0.998292
0.998374
0.998455
0.998555
0.998684
0.998847
0.999041
0.999265
0.999512
0.999776
1.000048
1.000320
1.000583
1.000828
1.001049
1.001241
1.001400
1.001526
1.001622
1.001699
1.001778
1.001896
1.002100
0.997935
0.998146
0.998268
0.998352
0.998435
0.998537
0.998669
0.998834
0.999031
0.999257
0.999507
0.999773
1.000048
1.000322
1.000587
1.000835
1.001059
1.001253
1.001414
1.001542
1.001640
1.001719
1.001799
1.001918
1.002124
0.997892
0.998104
0.998229
0.998315
0.998401
0.998508
0.998643
0.998812
0.999014
0.999244
0.999498
0.999768
1.000047
1.000326
1.000595
1.000847
1.001074
1.001272
1.001437
1.001569
1.001671
1.001753
1.001836
1.001957
1.002164
0.997830
0.998045
0.998172
0.998263
0.998354
0.998466
0.998608
0.998782
0.998990
0.999226
0.999486
0.999762
1.000046
1.000331
1.000605
1.000863
1.001096
1.001299
1.001470
1.001607
1.001714
1.001801
1.001888
1.002012
1.002222
0.997750
0.997967
0.998099
0.998195
0.998293
0.998412
0.998561
0.998744
0.998959
0.999203
0.999470
0.999754
1.000046
1.000337
1.000619
1.000884
1.001124
1.001334
1.001512
1.001657
1.001771
1.001864
1.001956
1.002085
1.002297
0.997649
0.997870
0.998007
0.998111
0.998218
0.998346
0.998505
0.998698
0.998922
0.999175
0.999451
0.999744
1.000045
1.000345
1.000636
1.000909
1.001158
1.001377
1.001564
1.001717
1.001840
1.001942
1.002042
1.002176
1.002393
0.997526
0.997751
0.997896
0.998011
0.998129
0.998270
0.998440
0.998644
0.998879
0.999143
0.999430
0.999733
1.000044
1.000355
1.000655
1.000939
1.001198
1.001427
1.001625
1.001789
1.001924
1.002036
1.002147
1.002289
1.002510
0.997379
0.997609
0.997766
0.997894
0.998027
0.998182
0.998366
0.998583
0.998831
0.999107
0.999406
0.999721
1.000044
1.000366
1.000678
1.000973
1.001244
1.001485
1.001695
1.001872
1.002020
1.002147
1.002271
1.002424
1.002651
0.997202
0.997440
0.997612
0.997758
0.997909
0.998080
0.998281
0.998512
0.998775
0.999065
0.999379
0.999708
1.000044
1.000380
1.000706
1.001014
1.001298
1.001553
1.001777
1.001970
1.002134
1.002278
1.002419
1.002588
1.002822
0.996986
0.997235
0.997427
0.997595
0.997767
0.997958
0.998176
0.998426
0.998706
0.999014
0.999345
0.999691
1.000045
1.000398
1.000741
1.001066
1.001366
1.001638
1.001879
1.002089
1.002272
1.002436
1.002599
1.002787
1.003034
0.996711
0.996980
0.997198
0.997389
0.997583
0.997796
0.998037
0.998309
0.998612
0.998944
0.999298
0.999668
1.000046
1.000423
1.000789
1.001137
1.001461
1.001755
1.002017
1.002248
1.002452
1.002638
1.002824
1.003038
1.003305
0.996343
0.996671
0.996909
0.997118
0.997333
0.997571
0.997839
0.998142
0.998477
0.998842
0.999230
0.999635
1.000048
1.000459
1.000860
1.001242
1.001598
1.001923
1.002215
1.002473
1.002701
1.002907
1.003110
1.003344
1.003669
0.996715
0.996972
0.997184
0.997376
0.997573
0.997790
0.998034
0.998309
0.998613
0.998945
0.999299
0.999669
1.000047
1.000423
1.000789
1.001137
1.001462
1.001757
1.002022
1.002257
1.002465
1.002655
1.002841
1.003048
1.003303
0.997024
0.997199
0.997382
0.997561
0.997745
0.997946
0.998172
0.998425
0.998708
0.999016
0.999346
0.999692
1.000044
1.000396
1.000738
1.001063
1.001364
1.001639
1.001884
1.002102
1.002295
1.002472
1.002646
1.002825
1.002998
0.997288
0.997429
0.997583
0.997740
0.997906
0.998089
0.998296
0.998530
0.998792
0.999079
0.999388
0.999712
1.000042
1.000372
1.000693
1.000997
1.001279
1.001534
1.001761
1.001961
1.002138
1.002298
1.002450
1.002601
1.002739
0.997505
0.997629
0.997762
0.997899
0.998046
0.998212
0.998402
0.998619
0.998863
0.999133
0.999424
0.999729
1.000041
1.000353
1.000656
1.000943
1.001208
1.001447
1.001658
1.001842
1.002001
1.002143
1.002276
1.002406
1.002529
0.997683
0.997798
0.997917
0.998037
0.998168
0.998318
0.998493
0.998695
0.998924
0.999179
0.999454
0.999744
1.000041
1.000337
1.000625
1.000897
1.001148
1.001373
1.001570
1.001740
1.001885
1.002011
1.002128
1.002243
1.002357
0.997830
0.997939
0.998047
0.998155
0.998272
0.998409
0.998571
0.998760
0.998976
0.999218
0.999480
0.999757
1.000041
1.000324
1.000600
1.000859
1.001098
1.001311
1.001496
1.001653
1.001786
1.001899
1.002004
1.002109
1.002216
0.997950
0.998055
0.998156
0.998254
0.998361
0.998487
0.998637
0.998816
0.999021
0.999251
0.999502
0.999768
1.000041
1.000314
1.000578
1.000827
1.001056
1.001258
1.001433
1.001580
1.001702
1.001806
1.001901
1.001999
1.002102
0.998048
0.998150
0.998245
0.998336
0.998435
0.998552
0.998694
0.998862
0.999059
0.999280
0.999521
0.999778
1.000041
1.000305
1.000561
1.000801
1.001020
1.001214
1.001381
1.001520
1.001634
1.001730
1.001818
1.001910
1.002010
0.998126
0.998225
0.998316
0.998401
0.998494
0.998605
0.998739
0.998901
0.999089
0.999303
0.999537
0.999786
1.000042
1.000298
1.000546
1.000780
1.000992
1.001179
1.001339
1.001471
1.001579
1.001669
1.001752
1.001840
1.001937
0.998184
0.998282
0.998369
0.998451
0.998539
0.998645
0.998774
0.998930
0.999113
0.999321
0.999549
0.999792
1.000043
1.000293
1.000536
1.000763
1.000970
1.001152
1.001307
1.001434
1.001537
1.001623
1.001702
1.001788
1.001883
0.998225
0.998321
0.998407
0.998486
0.998571
0.998673
0.998799
0.998951
0.999130
0.999334
0.999558
0.999797
1.000043
1.000289
1.000528
1.000752
1.000955
1.001133
1.001284
1.001408
1.001508
1.001591
1.001668
1.001751
1.001845
0.998249
0.998345
0.998429
0.998507
0.998590
0.998690
0.998814
0.998964
0.999141
0.999342
0.999563
0.999800
1.000044
1.000287
1.000523
1.000745
1.000946
1.001122
1.001271
1.001393
1.001491
1.001572
1.001648
1.001730
1.001823
0.998257
0.998352
0.998437
0.998514
0.998597
0.998696
0.998819
0.998968
0.999144
0.999344
0.999565
0.999801
1.000044
1.000287
1.000522
1.000743
1.000943
1.001118
1.001266
1.001388
1.001485
1.001566
1.001641
1.001723
1.001816
0.998249
0.998345
0.998429
0.998507
0.998590
0.998690
0.998814
0.998964
0.999141
0.999342
0.999563
0.999800
1.000044
1.000287
1.000523
1.000745
1.000946
1.001122
1.001271
1.001393
1.001491
1.001572
1.001648
1.001730
1.001823
0.998225
0.998321
0.998407
0.998486
0.998571
0.998673
0.998799
0.998951
0.999130
0.999334
0.999558
0.999797
1.000043
1.000289
1.000528
1.000752
1.000955
1.001133
1.001284
1.001408
1.001508
1.001591
1.001668
1.001751
1.001845
0.998184
0.998282
0.998369
0.998451
0.998539
0.998645
0.998774
0.998930
0.999113
0.999321
0.999549
0.999792
1.000043
1.000293
1.000536
1.000763
1.000970
1.001152
1.001307
1.001434
1.001537
1.001623
1.001702
1.001788
1.001883
0.998126
0.998225
0.998316
0.998401
0.998494
0.998605
0.998739
0.998901
0.999089
0.999303
0.999537
0.999786
1.000042
1.000298
1.000546
1.000780
1.000992
1.001179
1.001339
1.001471
1.001579
1.001669
1.001752
1.001840
1.001937
0.998048
0.998150
0.998245
0.998336
0.998435
0.998552
0.998694
0.998862
0.999059
0.999280
0.999521
0.999778
1.000041
1.000305
1.000561
1.000801
1.001020
1.001214
1.001381
1.001520
1.001634
1.001730
1.001818
1.001910
1.002010
0.997950
0.998055
0.998156
0.998254
0.998361
0.998487
0.998637
0.998816
0.999021
0.999251
0.999502
0.999768
1.000041
1.000314
1.000578
1.000827
1.001056
1.001258
1.001433
1.001580
1.001702
1.001806
1.001901
1.001999
1.002102
0.997830
0.997939
0.998047
0.998155
0.998272
0.998409
0.998571
0.998760
0.998976
0.999218
0.999480
0.999757
1.000041
1.000324
1.000600
1.000859
1.001098
1.001311
1.001496
1.001653
1.001786
1.001899
1.002004
1.002109
1.002216
0.997683
0.997798
0.997917
0.998037
0.998168
0.998318
0.998493
0.998695
0.998924
0.999179
0.999454
0.999744
1.000041
1.000337
1.000625
1.000897
1.001148
1.001373
1.001570
1.001740
1.001885
1.002011
1.002128
1.002243
1.002357
0.997505
0.997629
0.997762
0.997899
0.998046
0.998212
0.998402
0.998619
0.998863
0.999133
0.999424
0.999729
1.000041
1.000353
1.000656
1.000943
1.001208
1.001447
1.001658
1.001842
1.002001
1.002143
1.002276
1.002406
1.002529
0.997288
0.997429
0.997583
0.997740
0.997906
0.998089
0.998296
0.998530
0.998792
0.999079
0.999388
0.999712
1.000042
1.000372
1.000693
1.000997
1.001279
1.001534
1.001761
1.001961
1.002138
1.002298
1.002450
1.002601
1.002739
0.997024
0.997199
0.997382
0.997561
0.997745
0.997946
0.998172
0.998425
0.998708
0.999016
0.999346
0.999692
1.000044
1.000396
1.000738
1.001063
1.001364
1.001639
1.001884
1.002102
1.002295
1.002472
1.002646
1.002825
1.002998
0.996715
0.996972
0.997184
0.997376
0.997573
0.997790
0.998034
0.998309
0.998613
0.998945
0.999299
0.999669
1.000047
1.000423
1.000789
1.001137
1.001462
1.001757
1.002022
1.002257
1.002465
1.002655
1.002841
1.003048
1.003303
0.997047
0.997271
0.997450
0.997617
0.997792
0.997987
0.998207
0.998455
0.998732
0.999034
0.999358
0.999698
1.000044
1.000390
1.000727
1.001046
1.001343
1.001612
1.001853
1.002066
1.002253
1.002421
1.002583
1.002758
1.002978
0.997338
0.997468
0.997615
0.997770
0.997935
0.998117
0.998323
0.998554
0.998813
0.999095
0.999399
0.999716
1.000041
1.000365
1.000681
1.000980
1.001258
1.001511
1.001736
1.001936
1.002112
1.002271
1.002421
1.002566
1.002693
0.997589
0.997674
0.997792
0.997926
0.998076
0.998243
0.998433
0.998648
0.998889
0.999153
0.999437
0.999734
1.000039
1.000343
1.000639
1.000920
1.001180
1.001416
1.001627
1.001812
1.001975
1.002119
1.002250
1.002365
1.002449
0.997798
0.997862
0.997958
0.998074
0.998207
0.998359
0.998534
0.998734
0.998958
0.999205
0.999471
0.999751
1.000037
1.000324
1.000602
1.000866
1.001111
1.001332
1.001528
1.001700
1.001848
1.001977
1.002090
1.002184
1.002247
0.997970
0.998024
0.998105
0.998206
0.998324
0.998463
0.998624
0.998809
0.999019
0.999251
0.999502
0.999766
1.000037
1.000307
1.000570
1.000820
1.001051
1.001259
1.001442
1.001601
1.001736
1.001852
1.001950
1.002029
1.002081
0.998112
0.998159
0.998230
0.998319
0.998426
0.998553
0.998702
0.998875
0.999072
0.999291
0.999529
0.999779
1.000036
1.000293
1.000544
1.000781
1.000999
1.001196
1.001368
1.001515
1.001640
1.001744
1.001831
1.001901
1.001947
0.998228
0.998270
0.998334
0.998415
0.998512
0.998629
0.998768
0.998931
0.999118
0.999326
0.999552
0.999790
1.000036
1.000282
1.000521
1.000747
1.000956
1.001142
1.001305
1.001444
1.001559
1.001655
1.001734
1.001796
1.001838
0.998321
0.998359
0.998419
0.998493
0.998583
0.998692
0.998824
0.998978
0.999156
0.999355
0.999571
0.999800
1.000036
1.000273
1.000503
1.000720
1.000920
1.001099
1.001254
1.001385
1.001494
1.001582
1.001655
1.001713
1.001751
0.998393
0.998429
0.998485
0.998555
0.998640
0.998743
0.998868
0.999016
0.999187
0.999378
0.999587
0.999808
1.000037
1.000265
1.000488
1.000698
1.000891
1.001064
1.001213
1.001338
1.001441
1.001525
1.001594
1.001648
1.001684
0.998447
0.998482
0.998536
0.998602
0.998683
0.998782
0.998902
0.999045
0.999210
0.999396
0.999599
0.999815
1.000037
1.000260
1.000477
1.000682
1.000870
1.001037
1.001181
1.001303
1.001402
1.001482
1.001547
1.001600
1.001634
0.998485
0.998519
0.998571
0.998635
0.998713
0.998809
0.998926
0.999066
0.999227
0.999409
0.999608
0.999819
1.000037
1.000256
1.000469
1.000670
1.000854
1.001018
1.001160
1.001278
1.001374
1.001452
1.001516
1.001566
1.001600
0.998507
0.998540
0.998591
0.998654
0.998731
0.998826
0.998941
0.999078
0.999237
0.999417
0.999613
0.999822
1.000038
1.000254
1.000464
1.000663
1.000845
1.001007
1.001147
1.001263
1.001358
1.001435
1.001497
1.001547
1.001579
0.998515
0.998548
0.998598
0.998661
0.998737
0.998831
0.998945
0.999082
0.999240
0.999419
0.999615
0.999823
1.000038
1.000253
1.000463
1.000661
1.000842
1.001004
1.001142
1.001258
1.001353
1.001429
1.001491
1.001540
1.001573
0.998507
0.998540
0.998591
0.998654
0.998731
0.998826
0.998941
0.999078
0.999237
0.999417
0.999613
0.999822
1.000038
1.000254
1.000464
1.000663
1.000845
1.001007
1.001147
1.001263
1.001358
1.001435
1.001497
1.001547
1.001579
0.998485
0.998519
0.998571
0.998635
0.998713
0.998809
0.998926
0.999066
0.999227
0.999409
0.999608
0.999819
1.000037
1.000256
1.000469
1.000670
1.000854
1.001018
1.001160
1.001278
1.001374
1.001452
1.001516
1.001566
1.001600
0.998447
0.998482
0.998536
0.998602
0.998683
0.998782
0.998902
0.999045
0.999210
0.999396
0.999599
0.999815
1.000037
1.000260
1.000477
1.000682
1.000870
1.001037
1.001181
1.001303
1.001402
1.001482
1.001547
1.001600
1.001634
0.998393
0.998429
0.998485
0.998555
0.998640
0.998743
0.998868
0.999016
0.999187
0.999378
0.999587
0.999808
1.000037
1.000265
1.000488
1.000698
1.000891
1.001064
1.001213
1.001338
1.001441
1.001525
1.001594
1.001648
1.001684
0.998321
0.998359
0.998419
0.998493
0.998583
0.998692
0.998824
0.998978
0.999156
0.999355
0.999571
0.999800
1.000036
1.000273
1.000503
1.000720
1.000920
1.001099
1.001254
1.001385
1.001494
1.001582
1.001655
1.001713
1.001751
0.998228
0.998270
0.998334
0.998415
0.998512
0.998629
0.998768
0.998931
0.999118
0.999326
0.999552
0.999790
1.000036
1.000282
1.000521
1.000747
1.000956
1.001142
1.001305
1.001444
1.001559
1.001655
1.001734
1.001796
1.001838
0.998112
0.998159
0.998230
0.998319
0.998426
0.998553
0.998702
0.998875
0.999072
0.999291
0.999529
0.999779
1.000036
1.000293
1.000544
1.000781
1.000999
1.001196
1.001368
1.001515
1.001640
1.001744
1.001831
1.001901
1.001947
0.997970
0.998024
0.998105
0.998206
0.998324
0.998463
0.998624
0.998809
0.999019
0.999251
0.999502
0.999766
1.000037
1.000307
1.000570
1.000820
1.001051
1.001259
1.001442
1.001601
1.001736
1.001852
1.001950
1.002029
1.002081
0.997798
0.997862
0.997958
0.998074
0.998207
0.998359
0.998534
0.998734
0.998958
0.999205
0.999471
0.999751
1.000037
1.000324
1.000602
1.000866
1.001111
1.001332
1.001528
1.001700
1.001848
1.001977
1.002090
1.002184
1.002247
0.997589
0.997674
0.997792
0.997926
0.998076
0.998243
0.998433
0.998648
0.998889
0.999153
0.999437
0.999734
1.000039
1.000343
1.000639
1.000920
1.001180
1.001416
1.001627
1.001812
1.001975
1.002119
1.002250
1.002365
1.002449
0.997338
0.997468
0.997615
0.997770
0.997935
0.998117
0.998323
0.998554
0.998813
0.999095
0.999399
0.999716
1.000041
1.000365
1.000681
1.000980
1.001258
1.001511
1.001736
1.001936
1.002112
1.002271
1.002421
1.002566
1.002693
0.997047
0.997271
0.997450
0.997617
0.997792
0.997987
0.998207
0.998455
0.998732
0.999034
0.999358
0.999698
1.000044
1.000390
1.000727
1.001046
1.001343
1.001612
1.001853
1.002066
1.002253
1.002421
1.002583
1.002758
1.002978
0.997376
0.997573
0.997723
0.997862
0.998012
0.998181
0.998375
0.998597
0.998846
0.999120
0.999415
0.999724
1.000041
1.000358
1.000665
1.000957
1.001227
1.001472
1.001689
1.001878
1.002041
1.002185
1.002320
1.002466
1.002659
0.997651
0.997753
0.997871
0.997998
0.998140
0.998299
0.998481
0.998689
0.998921
0.999177
0.999452
0.999741
1.000038
1.000334
1.000622
1.000895
1.001148
1.001378
1.001582
1.001760
1.001916
1.002053
1.002177
1.002292
1.002391
0.997887
0.997941
0.998028
0.998138
0.998265
0.998413
0.998582
0.998775
0.998992
0.999231
0.999488
0.999758
1.000035
1.000312
1.000581
1.000838
1.001075
1.001291
1.001482
1.001649
1.001794
1.001919
1.002025
1.002110
1.002163
0.998084
0.998113
0.998179
0.998271
0.998385
0.998519
0.998676
0.998855
0.999057
0.999280
0.999521
0.999773
1.000033
1.000292
1.000546
1.000786
1.001009
1.001212
1.001391
1.001546
1.001679
1.001791
1.001881
1.001945
1.001973
0.998247
0.998263
0.998314
0.998393
0.998494
0.998616
0.998761
0.998928
0.999117
0.999325
0.999550
0.999788
1.000032
1.000276
1.000514
1.000741
1.000951
1.001141
1.001309
1.001454
1.001576
1.001676
1.001753
1.001803
1.001819
0.998379
0.998388
0.998430
0.998498
0.998589
0.998702
0.998836
0.998992
0.999169
0.999365
0.999577
0.999801
1.000031
1.000261
1.000487
1.000701
1.000900
1.001080
1.001238
1.001374
1.001487
1.001577
1.001644
1.001686
1.001694
0.998486
0.998490
0.998526
0.998587
0.998670
0.998775
0.998900
0.999047
0.999214
0.999399
0.999600
0.999812
1.000030
1.000250
1.000464
1.000668
1.000857
1.001028
1.001178
1.001306
1.001412
1.001495
1.001555
1.001590
1.001595
0.998571
0.998572
0.998604
0.998660
0.998737
0.998835
0.998953
0.999092
0.999251
0.999428
0.999619
0.999822
1.000030
1.000240
1.000445
1.000640
1.000822
1.000985
1.001129
1.001250
1.001350
1.001428
1.001483
1.001515
1.001517
0.998636
0.998636
0.998665
0.998717
0.998790
0.998883
0.998996
0.999129
0.999282
0.999451
0.999635
0.999830
1.000030
1.000232
1.000430
1.000618
1.000793
1.000951
1.001089
1.001206
1.001302
1.001376
1.001428
1.001456
1.001457
0.998685
0.998684
0.998711
0.998760
0.998830
0.998920
0.999029
0.999158
0.999305
0.999469
0.999647
0.999836
1.000031
1.000226
1.000418
1.000602
1.000772
1.000925
1.001059
1.001173
1.001265
1.001336
1.001386
1.001413
1.001413
0.998718
0.998717
0.998743
0.998791
0.998858
0.998945
0.999052
0.999177
0.999321
0.999482
0.999656
0.999840
1.000031
1.000222
1.000410
1.000590
1.000756
1.000907
1.001038
1.001150
1.001240
1.001309
1.001358
1.001384
1.001382
0.998738
0.998736
0.998761
0.998808
0.998875
0.998961
0.999066
0.999189
0.999331
0.999489
0.999661
0.999843
1.000031
1.000220
1.000406
1.000583
1.000748
1.000896
1.001026
1.001136
1.001225
1.001293
1.001341
1.001366
1.001365
0.998744
0.998742
0.998767
0.998814
0.998880
0.998966
0.999070
0.999193
0.999334
0.999492
0.999663
0.999844
1.000031
1.000219
1.000404
1.000581
1.000745
1.000893
1.001022
1.001131
1.001220
1.001288
1.001336
1.001361
1.001359
0.998738
0.998736
0.998761
0.998808
0.998875
0.998961
0.999066
0.999189
0.999331
0.999489
0.999661
0.999843
1.000031
1.000220
1.000406