# vtk DataFile Version 2.0
generated by CFD-lab course output 
ASCII

DATASET UNSTRUCTURED_GRID
POINTS 14428 float

0.020950 0.015450 0.025550
0.020950 0.015500 0.025550
0.020950 0.015550 0.025550
0.020950 0.015600 0.025550
0.020900 0.015350 0.025550
0.020900 0.015400 0.025550
0.020900 0.015450 0.025550
0.020900 0.015500 0.025550
0.020900 0.015550 0.025550
0.020900 0.015600 0.025550
0.020900 0.015650 0.025550
0.020850 0.015300 0.025550
0.020850 0.015350 0.025550
0.020850 0.015400 0.025550
0.020850 0.015450 0.025550
0.020850 0.015500 0.025550
0.020850 0.015550 0.025550
0.020850 0.015600 0.025550
0.020800 0.015200 0.025550
0.020800 0.015250 0.025550
0.020800 0.015300 0.025550
0.020800 0.015350 0.025550
0.020800 0.015400 0.025550
0.020800 0.015450 0.025550
0.020800 0.015500 0.025550
0.020800 0.015550 0.025550
0.020800 0.015600 0.025550
0.020750 0.015200 0.025550
0.020750 0.015250 0.025550
0.020750 0.015300 0.025550
0.020750 0.015350 0.025550
0.020750 0.015400 0.025550
0.020750 0.015450 0.025550
0.020750 0.015500 0.025550
0.020750 0.015550 0.025550
0.020700 0.015150 0.025550
0.020700 0.015200 0.025550
0.020700 0.015250 0.025550
0.020700 0.015300 0.025550
0.020700 0.015350 0.025550
0.020700 0.015400 0.025550
0.020700 0.015450 0.025550
0.020700 0.015500 0.025550
0.020700 0.015550 0.025550
0.020650 0.015100 0.025550
0.020650 0.015150 0.025550
0.020650 0.015200 0.025550
0.020650 0.015250 0.025550
0.020650 0.015300 0.025550
0.020650 0.015350 0.025550
0.020650 0.015400 0.025550
0.020650 0.015450 0.025550
0.020650 0.015500 0.025550
0.020600 0.015050 0.025550
0.020600 0.015100 0.025550
0.020600 0.015150 0.025550
0.020600 0.015200 0.025550
0.020600 0.015250 0.025550
0.020600 0.015300 0.025550
0.020600 0.015350 0.025550
0.020600 0.015400 0.025550
0.020600 0.015450 0.025550
0.020550 0.015050 0.025550
0.020550 0.015100 0.025550
0.020550 0.015150 0.025550
0.020550 0.015200 0.025550
0.020550 0.015250 0.025550
0.020550 0.015300 0.025550
0.020550 0.015350 0.025550
0.020550 0.015400 0.025550
0.020500 0.015000 0.025550
0.020500 0.015050 0.025550
0.020500 0.015100 0.025550
0.020500 0.015150 0.025550
0.020500 0.015200 0.025550
0.020500 0.015250 0.025550
0.020500 0.015300 0.025550
0.020450 0.015000 0.025550
0.020450 0.015050 0.025550
0.020450 0.015100 0.025550
0.020450 0.015150 0.025550
0.020450 0.015200 0.025550
0.020450 0.015250 0.025550
0.020400 0.015050 0.025550
0.020400 0.015100 0.025550
0.020400 0.015150 0.025550
0.020950 0.015450 0.025600
0.020950 0.015500 0.025600
0.020950 0.015550 0.025600
0.020950 0.015600 0.025600
0.020950 0.015650 0.025600
0.020900 0.015350 0.025600
0.020900 0.015400 0.025600
0.020900 0.015450 0.025600
0.020900 0.015500 0.025600
0.020900 0.015550 0.025600
0.020900 0.015600 0.025600
0.020900 0.015650 0.025600
0.020850 0.015250 0.025600
0.020850 0.015300 0.025600
0.020850 0.015350 0.025600
0.020850 0.015400 0.025600
0.020850 0.015450 0.025600
0.020850 0.015500 0.025600
0.020850 0.015550 0.025600
0.020850 0.015600 0.025600
0.020800 0.015200 0.025600
0.020800 0.015250 0.025600
0.020800 0.015300 0.025600
0.020800 0.015350 0.025600
0.020800 0.015400 0.025600
0.020800 0.015450 0.025600
0.020800 0.015500 0.025600
0.020800 0.015550 0.025600
0.020800 0.015600 0.025600
0.020750 0.015150 0.025600
0.020750 0.015200 0.025600
0.020750 0.015250 0.025600
0.020750 0.015300 0.025600
0.020750 0.015350 0.025600
0.020750 0.015400 0.025600
0.020750 0.015450 0.025600
0.020750 0.015500 0.025600
0.020750 0.015550 0.025600
0.020700 0.015100 0.025600
0.020700 0.015150 0.025600
0.020700 0.015200 0.025600
0.020700 0.015250 0.025600
0.020700 0.015300 0.025600
0.020700 0.015350 0.025600
0.020700 0.015400 0.025600
0.020700 0.015450 0.025600
0.020700 0.015500 0.025600
0.020650 0.015100 0.025600
0.020650 0.015150 0.025600
0.020650 0.015200 0.025600
0.020650 0.015250 0.025600
0.020650 0.015300 0.025600
0.020650 0.015350 0.025600
0.020650 0.015400 0.025600
0.020650 0.015450 0.025600
0.020650 0.015500 0.025600
0.020600 0.015050 0.025600
0.020600 0.015100 0.025600
0.020600 0.015150 0.025600
0.020600 0.015200 0.025600
0.020600 0.015250 0.025600
0.020600 0.015300 0.025600
0.020600 0.015350 0.025600
0.020600 0.015400 0.025600
0.020600 0.015450 0.025600
0.020550 0.015050 0.025600
0.020550 0.015100 0.025600
0.020550 0.015150 0.025600
0.020550 0.015200 0.025600
0.020550 0.015250 0.025600
0.020550 0.015300 0.025600
0.020550 0.015350 0.025600
0.020500 0.015000 0.025600
0.020500 0.015050 0.025600
0.020500 0.015100 0.025600
0.020500 0.015150 0.025600
0.020500 0.015200 0.025600
0.020500 0.015250 0.025600
0.020500 0.015300 0.025600
0.020450 0.015000 0.025600
0.020450 0.015050 0.025600
0.020450 0.015100 0.025600
0.020450 0.015150 0.025600
0.020450 0.015200 0.025600
0.020400 0.015050 0.025600
0.020400 0.015100 0.025600
0.021000 0.015500 0.025650
0.021000 0.015550 0.025650
0.021000 0.015600 0.025650
0.021000 0.015650 0.025650
0.020950 0.015400 0.025650
0.020950 0.015450 0.025650
0.020950 0.015500 0.025650
0.020950 0.015550 0.025650
0.020950 0.015600 0.025650
0.020950 0.015650 0.025650
0.020900 0.015300 0.025650
0.020900 0.015350 0.025650
0.020900 0.015400 0.025650
0.020900 0.015450 0.025650
0.020900 0.015500 0.025650
0.020900 0.015550 0.025650
0.020900 0.015600 0.025650
0.020900 0.015650 0.025650
0.020850 0.015250 0.025650
0.020850 0.015300 0.025650
0.020850 0.015350 0.025650
0.020850 0.015400 0.025650
0.020850 0.015450 0.025650
0.020850 0.015500 0.025650
0.020850 0.015550 0.025650
0.020850 0.015600 0.025650
0.020800 0.015200 0.025650
0.020800 0.015250 0.025650
0.020800 0.015300 0.025650
0.020800 0.015350 0.025650
0.020800 0.015400 0.025650
0.020800 0.015450 0.025650
0.020800 0.015500 0.025650
0.020800 0.015550 0.025650
0.020800 0.015600 0.025650
0.020750 0.015150 0.025650
0.020750 0.015200 0.025650
0.020750 0.015250 0.025650
0.020750 0.015300 0.025650
0.020750 0.015350 0.025650
0.020750 0.015400 0.025650
0.020750 0.015450 0.025650
0.020750 0.015500 0.025650
0.020750 0.015550 0.025650
0.020700 0.015100 0.025650
0.020700 0.015150 0.025650
0.020700 0.015200 0.025650
0.020700 0.015250 0.025650
0.020700 0.015300 0.025650
0.020700 0.015350 0.025650
0.020700 0.015400 0.025650
0.020700 0.015450 0.025650
0.020700 0.015500 0.025650
0.020650 0.015100 0.025650
0.020650 0.015150 0.025650
0.020650 0.015200 0.025650
0.020650 0.015250 0.025650
0.020650 0.015300 0.025650
0.020650 0.015350 0.025650
0.020650 0.015400 0.025650
0.020650 0.015450 0.025650
0.020600 0.015050 0.025650
0.020600 0.015100 0.025650
0.020600 0.015150 0.025650
0.020600 0.015200 0.025650
0.020600 0.015250 0.025650
0.020600 0.015300 0.025650
0.020600 0.015350 0.025650
0.020600 0.015400 0.025650
0.020550 0.015050 0.025650
0.020550 0.015100 0.025650
0.020550 0.015150 0.025650
0.020550 0.015200 0.025650
0.020550 0.015250 0.025650
0.020550 0.015300 0.025650
0.020550 0.015350 0.025650
0.020500 0.015000 0.025650
0.020500 0.015050 0.025650
0.020500 0.015100 0.025650
0.020500 0.015150 0.025650
0.020500 0.015200 0.025650
0.020500 0.015250 0.025650
0.020500 0.015300 0.025650
0.020450 0.015050 0.025650
0.020450 0.015100 0.025650
0.020450 0.015150 0.025650
0.020450 0.015200 0.025650
0.020400 0.015100 0.025650
0.021000 0.015500 0.025700
0.021000 0.015550 0.025700
0.021000 0.015600 0.025700
0.021000 0.015650 0.025700
0.020950 0.015400 0.025700
0.020950 0.015450 0.025700
0.020950 0.015500 0.025700
0.020950 0.015550 0.025700
0.020950 0.015600 0.025700
0.020950 0.015650 0.025700
0.020900 0.015300 0.025700
0.020900 0.015350 0.025700
0.020900 0.015400 0.025700
0.020900 0.015450 0.025700
0.020900 0.015500 0.025700
0.020900 0.015550 0.025700
0.020900 0.015600 0.025700
0.020900 0.015650 0.025700
0.020850 0.015250 0.025700
0.020850 0.015300 0.025700
0.020850 0.015350 0.025700
0.020850 0.015400 0.025700
0.020850 0.015450 0.025700
0.020850 0.015500 0.025700
0.020850 0.015550 0.025700
0.020850 0.015600 0.025700
0.020800 0.015200 0.025700
0.020800 0.015250 0.025700
0.020800 0.015300 0.025700
0.020800 0.015350 0.025700
0.020800 0.015400 0.025700
0.020800 0.015450 0.025700
0.020800 0.015500 0.025700
0.020800 0.015550 0.025700
0.020800 0.015600 0.025700
0.020750 0.015150 0.025700
0.020750 0.015200 0.025700
0.020750 0.015250 0.025700
0.020750 0.015300 0.025700
0.020750 0.015350 0.025700
0.020750 0.015400 0.025700
0.020750 0.015450 0.025700
0.020750 0.015500 0.025700
0.020750 0.015550 0.025700
0.020700 0.015100 0.025700
0.020700 0.015150 0.025700
0.020700 0.015200 0.025700
0.020700 0.015250 0.025700
0.020700 0.015300 0.025700
0.020700 0.015350 0.025700
0.020700 0.015400 0.025700
0.020700 0.015450 0.025700
0.020700 0.015500 0.025700
0.020650 0.015100 0.025700
0.020650 0.015150 0.025700
0.020650 0.015200 0.025700
0.020650 0.015250 0.025700
0.020650 0.015300 0.025700
0.020650 0.015350 0.025700
0.020650 0.015400 0.025700
0.020650 0.015450 0.025700
0.020600 0.015050 0.025700
0.020600 0.015100 0.025700
0.020600 0.015150 0.025700
0.020600 0.015200 0.025700
0.020600 0.015250 0.025700
0.020600 0.015300 0.025700
0.020600 0.015350 0.025700
0.020600 0.015400 0.025700
0.020550 0.015050 0.025700
0.020550 0.015100 0.025700
0.020550 0.015150 0.025700
0.020550 0.015200 0.025700
0.020550 0.015250 0.025700
0.020550 0.015300 0.025700
0.020550 0.015350 0.025700
0.020500 0.015050 0.025700
0.020500 0.015100 0.025700
0.020500 0.015150 0.025700
0.020500 0.015200 0.025700
0.020500 0.015250 0.025700
0.020500 0.015300 0.025700
0.020450 0.015050 0.025700
0.020450 0.015100 0.025700
0.020450 0.015150 0.025700
0.020450 0.015200 0.025700
0.021050 0.015550 0.025750
0.021050 0.015600 0.025750
0.021050 0.015650 0.025750
0.021000 0.015450 0.025750
0.021000 0.015500 0.025750
0.021000 0.015550 0.025750
0.021000 0.015600 0.025750
0.021000 0.015650 0.025750
0.020950 0.015350 0.025750
0.020950 0.015400 0.025750
0.020950 0.015450 0.025750
0.020950 0.015500 0.025750
0.020950 0.015550 0.025750
0.020950 0.015600 0.025750
0.020950 0.015650 0.025750
0.020900 0.015300 0.025750
0.020900 0.015350 0.025750
0.020900 0.015400 0.025750
0.020900 0.015450 0.025750
0.020900 0.015500 0.025750
[...]
POINT_DATA 14428 
SCALARS density float 1 
LOOKUP_TABLE default 
1.000426
1.000441
1.000463
1.000450
1.000459
1.000446
1.000426
1.000428
1.000418
1.000455
1.000511
1.000442
1.000438
1.000414
1.000429
1.000425
1.000421
1.000454
1.000436
1.000429
1.000439
1.000421
1.000426
1.000434
1.000418
1.000444
1.000451
1.000431
1.000436
1.000416
1.000424
1.000444
1.000423
1.000428
1.000458
1.000443
1.000436
1.000420
1.000425
1.000440
1.000418
1.000418
1.000460
1.000479
1.000456
1.000443
1.000421
1.000426
1.000438
1.000426
1.000426
1.000457
1.000444
1.000466
1.000439
1.000425
1.000433
1.000440
1.000427
1.000431
1.000458
1.000451
1.000450
1.000445
1.000427
1.000439
1.000423
1.000440
1.000465
1.000472
1.000518
1.000463
1.000432
1.000434
1.000438
1.000452
1.000469
1.000499
1.000460
1.000440
1.000460
1.000468
1.000491
1.000479
1.000512
1.000480
1.000430
1.000428
1.000431
1.000405
1.000434
1.000420
1.000423
1.000424
1.000428
1.000428
1.000427
1.000413
1.000420
1.000424
1.000431
1.000422
1.000432
1.000435
1.000428
1.000434
1.000432
1.000426
1.000433
1.000419
1.000430
1.000436
1.000427
1.000434
1.000422
1.000426
1.000421
1.000433
1.000425
1.000423
1.000437
1.000423
1.000428
1.000436
1.000430
1.000425
1.000431
1.000423
1.000426
1.000441
1.000425
1.000433
1.000446
1.000417
1.000435
1.000434
1.000431
1.000433
1.000425
1.000431
1.000453
1.000427
1.000425
1.000440
1.000431
1.000426
1.000441
1.000432
1.000427
1.000445
1.000429
1.000426
1.000457
1.000442
1.000429
1.000434
1.000439
1.000443
1.000440
1.000462
1.000447
1.000449
1.000448
1.000430
1.000428
1.000460
1.000465
1.000448
1.000439
1.000436
1.000445
1.000460
1.000416
1.000431
1.000418
1.000407
1.000426
1.000415
1.000420
1.000420
1.000412
1.000434
1.000427
1.000425
1.000419
1.000420
1.000430
1.000436
1.000413
1.000422
1.000425
1.000431
1.000423
1.000434
1.000432
1.000419
1.000422
1.000428
1.000414
1.000435
1.000423
1.000420
1.000427
1.000425
1.000427
1.000415
1.000415
1.000429
1.000436
1.000430
1.000424
1.000429
1.000421
1.000418
1.000433
1.000431
1.000435
1.000433
1.000428
1.000424
1.000433
1.000427
1.000426
1.000429
1.000432
1.000422
1.000431
1.000435
1.000428
1.000428
1.000427
1.000422
1.000434
1.000437
1.000444
1.000433
1.000423
1.000427
1.000424
1.000432
1.000435
1.000433
1.000439
1.000438
1.000421
1.000437
1.000428
1.000425
1.000462
1.000426
1.000421
1.000436
1.000448
1.000433
1.000423
1.000456
1.000433
1.000418
1.000441
1.000435
1.000417
1.000417
1.000417
1.000422
1.000430
1.000426
1.000414
1.000413
1.000421
1.000419
1.000433
1.000423
1.000420
1.000419
1.000425
1.000425
1.000417
1.000416
1.000421
1.000420
1.000419
1.000424
1.000419
1.000415
1.000422
1.000426
1.000425
1.000425
1.000418
1.000426
1.000425
1.000418
1.000421
1.000427
1.000429
1.000426
1.000424
1.000429
1.000424
1.000429
1.000423
1.000423
1.000430
1.000418
1.000425
1.000424
1.000425
1.000422
1.000427
1.000425
1.000423
1.000426
1.000422
1.000420
1.000426
1.000434
1.000424
1.000426
1.000423
1.000427
1.000423
1.000433
1.000430
1.000432
1.000429
1.000428
1.000427
1.000430
1.000423
1.000429
1.000432
1.000427
1.000424
1.000435
1.000428
1.000426
1.000421
1.000424
1.000433
1.000429
1.000428
1.000422
1.000435
1.000432
1.000432
1.000431
1.000409
1.000412
1.000406
1.000416
1.000419
1.000410
1.000414
1.000421
1.000419
1.000413
1.000416
1.000420
1.000416
1.000417
1.000419
1.000423
1.000418
1.000417
1.000421
1.000416
1.000410
1.000424
1.000410
1.000423
1.000417
1.000420
1.000419
1.000422
1.000419
1.000416
1.000419
1.000426
1.000420
1.000424
1.000426
1.000422
1.000419
1.000421
1.000431
1.000427
1.000417
1.000423
1.000424
1.000420
1.000420
1.000422
1.000423
1.000418
1.000425
1.000421
1.000426
1.000426
1.000419
1.000418
1.000419
1.000425
1.000415
1.000420
1.000427
1.000427
1.000420
1.000422
1.000426
1.000431
1.000423
1.000424
1.000424
1.000426
1.000425
1.000424
1.000430
1.000425
1.000425
1.000426
1.000432
1.000422
1.000425
1.000427
1.000432
1.000432
1.000431
1.000429
1.000423
1.000424
1.000416
1.000425
1.000436
1.000411
1.000420
1.000408
1.000412
1.000412
1.000416
1.000413
1.000414
1.000406
1.000410
1.000426
1.000410
1.000410
1.000419
1.000409
1.000417
1.000414
1.000418
1.000418
1.000412
1.000418
1.000416
1.000410
1.000417
1.000414
1.000421
1.000420
1.000417
1.000419
1.000419
1.000414
1.000421
1.000412
1.000421
1.000416
1.000419
1.000419
1.000418
1.000415
1.000417
1.000420
1.000418
1.000419
1.000418
1.000421
1.000417
1.000415
1.000421
1.000423
1.000419
1.000420
1.000421
1.000428
1.000423
1.000416
1.000419
1.000425
1.000423
1.000424
1.000427
1.000419
1.000419
1.000420
1.000426
1.000423
1.000414
1.000424
1.000425
1.000420
1.000421
1.000418
1.000422
1.000421
1.000428
1.000425
1.000421
1.000427
1.000422
1.000424
1.000420
1.000427
1.000426
1.000424
1.000419
1.000413
1.000422
1.000406
1.000401
1.000404
1.000410
1.000416
1.000406
1.000406
1.000412
1.000411
1.000407
1.000412
1.000411
1.000400
1.000412
1.000413
1.000413
1.000414
1.000408
1.000408
1.000415
1.000414
1.000413
1.000411
1.000416
1.000415
1.000410
1.000414
1.000417
1.000418
1.000415
1.000415
1.000417
1.000411
1.000411
1.000417
1.000410
1.000419
1.000415
1.000417
1.000416
1.000413
1.000410
1.000415
1.000414
1.000417
1.000416
1.000418
1.000420
1.000415
1.000416
1.000419
1.000418
1.000418
1.000416
1.000418
1.000420
1.000416
1.000417
1.000421
1.000421
1.000415
1.000424
1.000421
1.000415
1.000414
1.000421
1.000418
1.000414
1.000421
1.000419
1.000420
1.000419
1.000422
1.000420
1.000417
1.000421
1.000424
1.000415
1.000422
1.000424
1.000418
1.000425
1.000425
1.000421
1.000423
1.000415
1.000420
1.000428
1.000401
1.000413
1.000397
1.000403
1.000399
1.000407
1.000407
1.000401
1.000398
1.000413
1.000406
1.000413
1.000408
1.000400
1.000410
1.000403
1.000406
1.000408
1.000413
1.000409
1.000407
1.000408
1.000409
1.000408
1.000405
1.000415
1.000413
1.000401
1.000410
1.000416
1.000407
1.000409
1.000415
1.000412
1.000405
1.000412
1.000412
1.000403
1.000415
1.000412
1.000415
1.000414
1.000410
1.000411
1.000415
1.000406
1.000414
1.000416
1.000420
1.000414
1.000410
1.000415
1.000417
1.000409
1.000414
1.000411
1.000419
1.000414
1.000409
1.000414
1.000416
1.000412
1.000410
1.000421
1.000419
1.000411
1.000417
1.000418
1.000413
1.000419
1.000422
1.000422
1.000412
1.000418
1.000420
1.000417
1.000422
1.000423
1.000413
1.000416
1.000421
1.000408
1.000413
1.000414
1.000423
1.000394
1.000391
1.000405
1.000402
1.000398
1.000405
1.000404
1.000403
1.000400
1.000400
1.000402
1.000402
1.000400
1.000403
1.000405
1.000402
1.000402
1.000406
1.000412
1.000400
1.000404
1.000410
1.000407
1.000400
1.000404
1.000406
1.000407
1.000399
1.000406
1.000413
1.000407
1.000402
1.000407
1.000412
1.000398
1.000409
1.000415
1.000405
1.000402
1.000411
1.000417
1.000407
1.000406
1.000411
1.000414
1.000409
1.000403
1.000412
1.000416
1.000397
1.000410
1.000411
1.000416
1.000409
1.000408
1.000411
1.000410
1.000406
1.000414
1.000413
1.000415
1.000411
1.000410
1.000412
1.000414
1.000410
1.000410
1.000416
1.000415
1.000411
1.000416
1.000415
1.000410
1.000414
1.000418
1.000415
1.000411
1.000414
1.000416
1.000408
1.000419
1.000413
1.000413
1.000421
1.000414
1.000409
1.000417
1.000416
1.000393
1.000400
1.000390
1.000389
1.000395
1.000401
1.000397
1.000392
1.000396
1.000402
1.000401
1.000405
1.000395
1.000395
1.000404
1.000409
1.000394
1.000396
1.000405
1.000399
1.000399
1.000405
1.000411
1.000396
1.000399
1.000408
1.000404
1.000396
1.000404
1.000400
1.000413
1.000394
1.000403
1.000412
1.000405
1.000399
1.000405
1.000407
1.000407
1.000397
1.000407
1.000415
1.000404
1.000399
1.000409
1.000413
1.000401
1.000406
1.000413
1.000405
1.000399
1.000411
1.000415
1.000403
1.000408
1.000406
1.000414
1.000407
1.000401
1.000410
1.000412
1.000396
1.000413
1.000410
1.000413
1.000411
1.000405
1.000410
1.000415
1.000400
1.000409
1.000413
1.000413
1.000404
1.000412
1.000416
1.000402
1.000413
1.000409
1.000408
1.000413
1.000417
1.000406
1.000416
1.000408
1.000410
1.000419
1.000414
1.000415
1.000412
1.000377
1.000391
1.000402
1.000390
1.000394
1.000396
1.000396
1.000401
1.000395
1.000386
1.000394
1.000384
1.000400
1.000394
1.000396
1.000400
1.000392
1.000396
1.000392
1.000409
1.000395
1.000400
1.000402
1.000393
1.000397
1.000403
1.000402
1.000396
1.000400
1.000404
1.000400
1.000396
1.000401
1.000391
1.000406
1.000399
1.000400
1.000408
1.000401
1.000394
1.000404
1.000401
1.000411
1.000398
1.000403
1.000410
1.000402
1.000397
1.000405
1.000408
1.000397
1.000404
1.000410
1.000402
1.000399
1.000408
1.000411
1.000402
1.000405
1.000413
1.000404
1.000397
1.000412
1.000416
1.000399
1.000403
1.000404
1.000413
1.000405
1.000400
1.000412
1.000413
1.000400
1.000408
1.000414
1.000407
1.000400
1.000409
1.000414
1.000403
1.000412
1.000406
1.000406
1.000413
1.000413
1.000406
1.000410
1.000411
1.000404
1.000415
1.000385
1.000378
1.000383
1.000386
1.000392
1.000386
1.000392
1.000385
1.000389
1.000393
1.000389
1.000384
1.000396
1.000389
1.000404
1.000390
1.000396
1.000394
1.000390
1.000394
1.000388
1.000396
1.000393
1.000400
1.000399
1.000390
1.000394
1.000402
1.000402
1.000394
1.000398
1.000402
1.000390
1.000394
1.000405
1.000398
1.000402
1.000395
1.000402
1.000405
1.000394
1.000392
1.000404
1.000390
1.000403
1.000396
1.000401
1.000403
1.000400
1.000397
1.000404
1.000400
1.000402
1.000394
1.000400
1.000409
1.000401
1.000396
1.000404
1.000407
1.000396
1.000405
1.000408
1.000399
1.000400
1.000407
1.000408
1.000400
1.000407
1.000407
1.000401
1.000401
1.000407
1.000407
1.000409
1.000410
1.000402
1.000401
1.000409
1.000407
1.000403
1.000405
1.000406
1.000409
1.000404
1.000402
1.000408
1.000410
1.000405
1.000371
1.000374
1.000388
1.000387
1.000373
1.000391
1.000395
1.000390
1.000384
1.000381
1.000384
1.000379
1.000391
1.000382
1.000388
1.000385
1.000384
1.000393
1.000393
1.000381
1.000393
1.000394
1.000386
1.000389
1.000386
1.000397
1.000386
1.000395
1.000400
1.000387
1.000388
1.000395
1.000401
1.000391
1.000400
1.000402
1.000386
1.000393
1.000403
1.000399
1.000392
1.000399
1.000401
1.000389
1.000393
1.000406
1.000393
1.000400
1.000393
1.000399
1.000402
1.000393
1.000394
1.000404
1.000385
1.000404
1.000392
1.000403
1.000406
1.000394
1.000395
1.000403
1.000392
1.000392
1.000403
1.000405
1.000395
1.000396
1.000402
1.000400
1.000400
1.000405
1.000405
1.000395
1.000396
1.000405
1.000402
1.000401
1.000409
1.000398
1.000401
1.000407
1.000401
1.000408
1.000404
1.000400
1.000406
1.000401
1.000397
1.000411
1.000379
1.000377
1.000372
1.000379
1.000386
1.000381
1.000375
1.000386
1.000373
1.000383
1.000384
1.000383
1.000377
1.000376
1.000382
1.000389
1.000382
1.000390
1.000378
1.000384
1.000390
1.000390
1.000383
1.000389
1.000388
1.000383
1.000386
1.000378
1.000392
1.000386
1.000395
1.000392
1.000377
1.000390
1.000386
1.000394
1.000389
1.000396
1.000394
1.000384
1.000388
1.000397
1.000396
1.000393
1.000396
1.000395
1.000384
1.000394
1.000406
1.000396
1.000391
1.000399
1.000400
1.000388
1.000394
1.000404
1.000390
1.000394
1.000392
1.000403
1.000400
1.000389
1.000395
1.000407
1.000392
1.000392
1.000401
1.000402
1.000392
1.000394
1.000406
1.000390
1.000398
1.000402
1.000404
1.000392
1.000394
1.000405
1.000394
1.000401
1.000405
1.000394
1.000400
1.000405
1.000392
1.000401
1.000397
1.000403
1.000397
1.000390
1.000407
1.000367
1.000370
1.000380
1.000371
1.000375
1.000384
1.000371
1.000378
1.000375
1.000371
1.000371
1.000357
1.000377
1.000378
1.000382
1.000372
1.000377
1.000378
1.000375
1.000384
1.000385
1.000374
1.000383
1.000388
1.000374
1.000386
1.000388
1.000376
1.000378
1.000390
1.000380
1.000376
1.000383
1.000394
1.000379
1.000377
1.000391
1.000374
1.000384
1.000384
1.000394
1.000384
1.000381
1.000391
1.000386
1.000393
1.000386
1.000397
1.000391
1.000381
1.000393
1.000393
1.000394
1.000389
1.000398
1.000394
1.000385
1.000394
1.000396
1.000395
1.000390
1.000394
1.000395
1.000387
1.000392
1.000403
1.000389
1.000399
1.000398
1.000388
1.000395
1.000405
1.000392
1.000394
1.000399
1.000397
1.000392
1.000397
1.000405
1.000395
1.000400
1.000391
1.000394
1.000407
1.000396
1.000392
1.000394
1.000402
1.000396
1.000398
1.000401
1.000362
1.000361
1.000363
1.000385
1.000372
1.000368
1.000366
1.000372
1.000374
1.000373
1.000373
1.000370
1.000367
1.000375
1.000378
1.000380
1.000365
1.000376
1.000377
1.000369
1.000378
1.000374
1.000375
1.000362
1.000380
1.000383
1.000373
1.000372
1.000378
1.000383
1.000366
1.000383
1.000388
1.000371
1.000377
1.000389
1.000382
1.000369
1.000387
1.000390
1.000372
1.000380
1.000392
1.000381
1.000377
1.000385
1.000391
1.000376
1.000379
1.000391
1.000370
1.000386
1.000384
1.000394
1.000382
1.000379
1.000392
1.000375
1.000391
1.000387
1.000394
1.000388
1.000380
1.000391
1.000386
1.000390
1.000386
1.000394
1.000395
1.000383
1.000392
1.000395
1.000388
1.000397
1.000394
1.000387
1.000394
1.000398
1.000396
1.000396
1.000388
1.000393
1.000400
1.000396
1.000388
1.000391
1.000400
1.000386
1.000395
1.000399
1.000399
1.000345
1.000368
1.000374
1.000353
1.000370
1.000372
1.000373
1.000370
1.000360
1.000363
1.000366
1.000366
1.000368
1.000375
1.000361
1.000364
1.000378
1.000376
1.000362
1.000374
1.000371
1.000368
1.000373
1.000358
1.000381
1.000362
1.000379
1.000380
1.000366
1.000371
1.000367
1.000386
1.000369
1.000381
1.000384
1.000367
1.000372
1.000382
1.000386
1.000369
1.000384
1.000385
1.000367
1.000377
1.000392
1.000370
1.000385
1.000387
1.000370
1.000378
1.000394
1.000377
1.000377
1.000386
1.000389
1.000371
1.000378
1.000395
1.000377
1.000383
1.000387
1.000392
1.000378
1.000380
1.000393
1.000377
1.000385
1.000388
1.000396
1.000385
1.000381
1.000392
1.000384
1.000392
1.000393
1.000386
1.000384
1.000389
1.000389
1.000389
1.000392
1.000385
1.000390
1.000391
1.000387
1.000390
1.000395
1.000389
1.000389
1.000393
1.000396
1.000352
1.000346
1.000355
1.000370
1.000360
1.000356
1.000363
1.000347
1.000359
1.000359
1.000366
1.000355
1.000355
1.000359
1.000368
1.000363
1.000367
1.000355
1.000366
1.000372
1.000368
1.000366
1.000372
1.000364
1.000365
1.000371
1.000365
1.000371
1.000367
1.000378
1.000370
1.000360
1.000376
1.000362
1.000371
1.000369
1.000378
1.000375
1.000365
1.000372
1.000373
1.000377
1.000366
1.000379
1.000382
1.000366
1.000372
1.000383
1.000373
1.000366
1.000384
1.000384
1.000371
1.000375
1.000385
1.000372
1.000385
1.000387
1.000372
1.000378
1.000390
1.000379
1.000388
1.000389
1.000371
1.000380
1.000393
1.000379
1.000384
1.000387
1.000390
1.000377
1.000379
1.000392
1.000371
1.000384
1.000390
1.000382
1.000380
1.000392
1.000377
1.000393
1.000387
1.000384
1.000393
1.000384
1.000391
1.000388
1.000396
1.000391
1.000396
1.000336
1.000345
1.000347
1.000345
1.000348
1.000360
1.000348
1.000355
1.000353
1.000348
1.000348
1.000340
1.000359
1.000357
1.000360
1.000351
1.000357
1.000355
1.000359
1.000361
1.000365
1.000359
1.000358
1.000363
1.000361
1.000368
1.000370
1.000359
1.000358
1.000371
1.000367
1.000370
1.000373
1.000360
1.000359
1.000373
1.000369
1.000370
1.000369
1.000376
1.000364
1.000363
1.000372
1.000359
1.000374
1.000366
1.000378
1.000373
1.000363
1.000373
1.000366
1.000383
1.000366
1.000379
1.000379
1.000365
1.000375
1.000374
1.000364
1.000380
1.000383
1.000368
1.000373
1.000383
1.000373
1.000381
1.000382
1.000368
1.000377
1.000391
1.000380
1.000382
1.000385
1.000372
1.000378
1.000394
1.000378
1.000387
1.000389
1.000378
1.000380
1.000395
1.000378
1.000383
1.000383
1.000388
1.000383
1.000382
1.000390
1.000385
1.000339
1.000338
1.000342
1.000357
1.000353
1.000352
1.000334
1.000353
1.000363
1.000356
1.000352
1.000345
1.000346
1.000348
1.000344
1.000343
1.000356
1.000356
1.000347
1.000353
1.000348
1.000341
1.000360
1.000363
1.000349
1.000352
1.000352
1.000347
1.000361
1.000370
1.000352
1.000350
1.000363
1.000354
1.000365
1.000371
1.000351
1.000360
1.000375
1.000367
1.000365
1.000373
1.000356
1.000362
1.000379
1.000361
1.000368
1.000369
1.000378
1.000360
1.000361
1.000380
1.000361
1.000370
1.000365
1.000377
1.000371
1.000360
1.000375
1.000362
1.000370
1.000362
1.000378
1.000378
1.000364
1.000374
1.000374
1.000365
1.000382
1.000382
1.000366
1.000373
1.000385
1.000371
1.000384
1.000381
1.000368
1.000377
1.000387
1.000385
1.000371
1.000375
1.000389
1.000368
1.000378
1.000387
1.000377
1.000380
1.000332
1.000344
1.000351
1.000332
1.000341
1.000352
1.000350
1.000346
1.000342
1.000346
1.000341
1.000347
1.000345
1.000352
1.000340
1.000341
1.000359
1.000347
1.000348
1.000340
1.000353
1.000342
1.000347
1.000355
1.000333
1.000355
1.000336
1.000357
1.000359
1.000341
1.000348
1.000342
1.000354
1.000339
1.000362
1.000361
1.000342
1.000357
1.000356
1.000342
1.000363
1.000367
1.000344
1.000354
1.000370
1.000353
1.000366
1.000369
1.000350
1.000356
1.000374
1.000362
1.000366
1.000372
1.000355
1.000361
1.000376
1.000363
1.000369
1.000375
1.000359
1.000361
1.000376
1.000364
1.000368
1.000370
1.000378
1.000367
1.000363
1.000375
1.000359
1.000368
1.000379
1.000371
1.000366
1.000374
1.000366
1.000376
1.000373
1.000365
1.000376
1.000370
1.000371
1.000367
1.000379
1.000374
1.000370
1.000376
1.000386
1.000379
1.000381
1.000337
1.000324
1.000336
1.000344
1.000344
1.000333
1.000341
1.000340
1.000332
1.000339
1.000343
1.000334
1.000327
1.000338
1.000341
1.000341
1.000344
1.000332
1.000339
1.000353
1.000348
1.000342
1.000351
1.000342
1.000345
1.000353
1.000345
1.000352
1.000345
1.000357
1.000344
1.000342
1.000357
1.000347
1.000358
1.000342
1.000359
1.000352
1.000340
1.000353
1.000344
1.000353
1.000339
1.000360
1.000360
1.000342
1.000351
1.000351
1.000344
1.000361
1.000364
1.000345
1.000354
1.000361
1.000357
1.000363
1.000367
1.000351
1.000355
1.000370
1.000363
1.000368
1.000370
1.000354
1.000361
1.000376
1.000360
1.000369
1.000372
1.000359
1.000359
1.000376
1.000364
1.000364
1.000372
1.000361
1.000363
1.000379
1.000363
1.000378
1.000372
1.000366
1.000376
1.000372
1.000373
1.000369
1.000382
1.000373
1.000378
1.000380
1.000319
1.000331
1.000326
1.000334
1.000326
1.000331
1.000333
1.000326
1.000330
1.000326
1.000335
1.000336
1.000339
1.000327
1.000331
1.000341
1.000332
1.000337
1.000343
1.000333
1.000337
1.000341
1.000335
1.000342
1.000347
1.000339
1.000333
1.000342
1.000338
1.000346
1.000353
1.000337
1.000339
1.000354
1.000348
1.000347
1.000353
1.000345
1.000343
1.000353
1.000348
1.000354
1.000343
1.000358
1.000349
1.000343
1.000356
1.000346
1.000341
1.000359
1.000357
1.000342
1.000353
1.000347
1.000345
1.000361
1.000363
1.000342
1.000352
1.000361
1.000356
1.000362
1.000366
1.000348
1.000356
1.000370
1.000362
1.000363
1.000368
1.000354
1.000358
1.000372
1.000371
1.000370
1.000359
1.000360
1.000374
1.000369
1.000365
1.000368
1.000364
1.000371
1.000370
1.000321
1.000317
1.000326
1.000335
1.000315
1.000327
1.000335
1.000318
1.000334
1.000330
1.000318
1.000325
1.000325
1.000314
1.000331
1.000331
1.000331
1.000325
1.000334
1.000326
1.000330
1.000337
1.000337
1.000329
1.000333
1.000327
1.000332
1.000341
1.000343
1.000330
1.000327
1.000333
1.000337
1.000341
1.000346
1.000333
1.000331
1.000342
1.000339
1.000346
1.000350
1.000335
1.000336
1.000353
1.000344
1.000343
1.000355
1.000342
1.000340
1.000357
1.000342
1.000342
1.000358
1.000347
1.000341
1.000357
1.000350
1.000342
1.000359
1.000355
1.000342
1.000352
1.000346
1.000349
1.000364
1.000357
1.000342
1.000352
1.000358
1.000359
1.000362
1.000350
1.000355
1.000359
1.000361
1.000354
1.000356
1.000364
1.000351
1.000358
1.000364
1.000357
1.000357
1.000308
1.000319
1.000317
1.000335
1.000334
1.000331
1.000314
1.000319
1.000329
1.000324
1.000324
1.000328
1.000317
1.000320
1.000333
1.000330
1.000320
1.000326
1.000318
1.000324
1.000332
1.000313
1.000319
1.000332
1.000331
1.000323
1.000325
1.000322
1.000321
1.000336
1.000339
1.000323
1.000328
1.000332
1.000327
1.000338
1.000340
1.000324
1.000330
1.000335
1.000333
1.000339
1.000347
1.000327
1.000332
1.000341
1.000341
1.000340
1.000350
1.000337
1.000335
1.000348
1.000348
1.000343
1.000352
1.000340
1.000339
1.000357
1.000345
1.000353
1.000346
1.000341
1.000356
1.000349
1.000348
1.000359
1.000348
1.000341
1.000354
1.000344
1.000351
1.000354
1.000345
1.000354
1.000357
1.000353
1.000347
1.000356
1.000359
1.000350
1.000355
1.000363
1.000360
1.000361
1.000301
1.000312
1.000315
1.000328
1.000302
1.000316
1.000321
1.000318
1.000323
1.000306
1.000310
1.000315