# vtk DataFile Version 2.0
generated by CFD-lab course output 
ASCII

DATASET UNSTRUCTURED_GRID
POINTS 6859 float

0.050000 0.050000 0.050000
0.100000 0.050000 0.050000
0.150000 0.050000 0.050000
0.200000 0.050000 0.050000
0.250000 0.050000 0.050000
0.300000 0.050000 0.050000
0.350000 0.050000 0.050000
0.400000 0.050000 0.050000
0.450000 0.050000 0.050000
0.500000 0.050000 0.050000
0.550000 0.050000 0.050000
0.600000 0.050000 0.050000
0.650000 0.050000 0.050000
0.700000 0.050000 0.050000
0.750000 0.050000 0.050000
0.800000 0.050000 0.050000
0.850000 0.050000 0.050000
0.900000 0.050000 0.050000
0.950000 0.050000 0.050000
0.050000 0.100000 0.050000
0.100000 0.100000 0.050000
0.150000 0.100000 0.050000
0.200000 0.100000 0.050000
0.250000 0.100000 0.050000
0.300000 0.100000 0.050000
0.350000 0.100000 0.050000
0.400000 0.100000 0.050000
0.450000 0.100000 0.050000
0.500000 0.100000 0.050000
0.550000 0.100000 0.050000
0.600000 0.100000 0.050000
0.650000 0.100000 0.050000
0.700000 0.100000 0.050000
0.750000 0.100000 0.050000
0.800000 0.100000 0.050000
0.850000 0.100000 0.050000
0.900000 0.100000 0.050000
0.950000 0.100000 0.050000
0.050000 0.150000 0.050000
0.100000 0.150000 0.050000
0.150000 0.150000 0.050000
0.200000 0.150000 0.050000
0.250000 0.150000 0.050000
0.300000 0.150000 0.050000
0.350000 0.150000 0.050000
0.400000 0.150000 0.050000
0.450000 0.150000 0.050000
0.500000 0.150000 0.050000
0.550000 0.150000 0.050000
0.600000 0.150000 0.050000
0.650000 0.150000 0.050000
0.700000 0.150000 0.050000
0.750000 0.150000 0.050000
0.800000 0.150000 0.050000
0.850000 0.150000 0.050000
0.900000 0.150000 0.050000
0.950000 0.150000 0.050000
0.050000 0.200000 0.050000
0.100000 0.200000 0.050000
0.150000 0.200000 0.050000
0.200000 0.200000 0.050000
0.250000 0.200000 0.050000
0.300000 0.200000 0.050000
0.350000 0.200000 0.050000
0.400000 0.200000 0.050000
0.450000 0.200000 0.050000
0.500000 0.200000 0.050000
0.550000 0.200000 0.050000
0.600000 0.200000 0.050000
0.650000 0.200000 0.050000
0.700000 0.200000 0.050000
0.750000 0.200000 0.050000
0.800000 0.200000 0.050000
0.850000 0.200000 0.050000
0.900000 0.200000 0.050000
0.950000 0.200000 0.050000
0.050000 0.250000 0.050000
0.100000 0.250000 0.050000
0.150000 0.250000 0.050000
0.200000 0.250000 0.050000
0.250000 0.250000 0.050000
0.300000 0.250000 0.050000
0.350000 0.250000 0.050000
0.400000 0.250000 0.050000
0.450000 0.250000 0.050000
0.500000 0.250000 0.050000
0.550000 0.250000 0.050000
0.600000 0.250000 0.050000
0.650000 0.250000 0.050000
0.700000 0.250000 0.050000
0.750000 0.250000 0.050000
0.800000 0.250000 0.050000
0.850000 0.250000 0.050000
0.900000 0.250000 0.050000
0.950000 0.250000 0.050000
0.050000 0.300000 0.050000
0.100000 0.300000 0.050000
0.150000 0.300000 0.050000
0.200000 0.300000 0.050000
0.250000 0.300000 0.050000
0.300000 0.300000 0.050000
0.350000 0.300000 0.050000
0.400000 0.300000 0.050000
0.450000 0.300000 0.050000
0.500000 0.300000 0.050000
0.550000 0.300000 0.050000
0.600000 0.300000 0.050000
0.650000 0.300000 0.050000
0.700000 0.300000 0.050000
0.750000 0.300000 0.050000
0.800000 0.300000 0.050000
0.850000 0.300000 0.050000
0.900000 0.300000 0.050000
0.950000 0.300000 0.050000
0.050000 0.350000 0.050000
0.100000 0.350000 0.050000
0.150000 0.350000 0.050000
0.200000 0.350000 0.050000
0.250000 0.350000 0.050000
0.300000 0.350000 0.050000
0.350000 0.350000 0.050000
0.400000 0.350000 0.050000
0.450000 0.350000 0.050000
0.500000 0.350000 0.050000
0.550000 0.350000 0.050000
0.600000 0.350000 0.050000
0.650000 0.350000 0.050000
0.700000 0.350000 0.050000
0.750000 0.350000 0.050000
0.800000 0.350000 0.050000
0.850000 0.350000 0.050000
0.900000 0.350000 0.050000
0.950000 0.350000 0.050000
0.050000 0.400000 0.050000
0.100000 0.400000 0.050000
0.150000 0.400000 0.050000
0.200000 0.400000 0.050000
0.250000 0.400000 0.050000
0.300000 0.400000 0.050000
0.350000 0.400000 0.050000
0.400000 0.400000 0.050000
0.450000 0.400000 0.050000
0.500000 0.400000 0.050000
0.550000 0.400000 0.050000
0.600000 0.400000 0.050000
0.650000 0.400000 0.050000
0.700000 0.400000 0.050000
0.750000 0.400000 0.050000
0.800000 0.400000 0.050000
0.850000 0.400000 0.050000
0.900000 0.400000 0.050000
0.950000 0.400000 0.050000
0.050000 0.450000 0.050000
0.100000 0.450000 0.050000
0.150000 0.450000 0.050000
0.200000 0.450000 0.050000
0.250000 0.450000 0.050000
0.300000 0.450000 0.050000
0.350000 0.450000 0.050000
0.400000 0.450000 0.050000
0.450000 0.450000 0.050000
0.500000 0.450000 0.050000
0.550000 0.450000 0.050000
0.600000 0.450000 0.050000
0.650000 0.450000 0.050000
0.700000 0.450000 0.050000
0.750000 0.450000 0.050000
0.800000 0.450000 0.050000
0.850000 0.450000 0.050000
0.900000 0.450000 0.050000
0.950000 0.450000 0.050000
0.050000 0.500000 0.050000
0.100000 0.500000 0.050000
0.150000 0.500000 0.050000
0.200000 0.500000 0.050000
0.250000 0.500000 0.050000
0.300000 0.500000 0.050000
0.350000 0.500000 0.050000
0.400000 0.500000 0.050000
0.450000 0.500000 0.050000
0.500000 0.500000 0.050000
0.550000 0.500000 0.050000
0.600000 0.500000 0.050000
0.650000 0.500000 0.050000
0.700000 0.500000 0.050000
0.750000 0.500000 0.050000
0.800000 0.500000 0.050000
0.850000 0.500000 0.050000
0.900000 0.500000 0.050000
0.950000 0.500000 0.050000
0.050000 0.550000 0.050000
0.100000 0.550000 0.050000
0.150000 0.550000 0.050000
0.200000 0.550000 0.050000
0.250000 0.550000 0.050000
0.300000 0.550000 0.050000
0.350000 0.550000 0.050000
0.400000 0.550000 0.050000
0.450000 0.550000 0.050000
0.500000 0.550000 0.050000
0.550000 0.550000 0.050000
0.600000 0.550000 0.050000
0.650000 0.550000 0.050000
0.700000 0.550000 0.050000
0.750000 0.550000 0.050000
0.800000 0.550000 0.050000
0.850000 0.550000 0.050000
0.900000 0.550000 0.050000
0.950000 0.550000 0.050000
0.050000 0.600000 0.050000
0.100000 0.600000 0.050000
0.150000 0.600000 0.050000
0.200000 0.600000 0.050000
0.250000 0.600000 0.050000
0.300000 0.600000 0.050000
0.350000 0.600000 0.050000
0.400000 0.600000 0.050000
0.450000 0.600000 0.050000
0.500000 0.600000 0.050000
0.550000 0.600000 0.050000
0.600000 0.600000 0.050000
0.650000 0.600000 0.050000
0.700000 0.600000 0.050000
0.750000 0.600000 0.050000
0.800000 0.600000 0.050000
0.850000 0.600000 0.050000
0.900000 0.600000 0.050000
0.950000 0.600000 0.050000
0.050000 0.650000 0.050000
0.100000 0.650000 0.050000
0.150000 0.650000 0.050000
0.200000 0.650000 0.050000
0.250000 0.650000 0.050000
0.300000 0.650000 0.050000
0.350000 0.650000 0.050000
0.400000 0.650000 0.050000
0.450000 0.650000 0.050000
0.500000 0.650000 0.050000
0.550000 0.650000 0.050000
0.600000 0.650000 0.050000
0.650000 0.650000 0.050000
0.700000 0.650000 0.050000
0.750000 0.650000 0.050000
0.800000 0.650000 0.050000
0.850000 0.650000 0.050000
0.900000 0.650000 0.050000
0.950000 0.650000 0.050000
0.050000 0.700000 0.050000
0.100000 0.700000 0.050000
0.150000 0.700000 0.050000
0.200000 0.700000 0.050000
0.250000 0.700000 0.050000
0.300000 0.700000 0.050000
0.350000 0.700000 0.050000
0.400000 0.700000 0.050000
0.450000 0.700000 0.050000
0.500000 0.700000 0.050000
0.550000 0.700000 0.050000
0.600000 0.700000 0.050000
0.650000 0.700000 0.050000
0.700000 0.700000 0.050000
0.750000 0.700000 0.050000
0.800000 0.700000 0.050000
0.850000 0.700000 0.050000
0.900000 0.700000 0.050000
0.950000 0.700000 0.050000
0.050000 0.750000 0.050000
0.100000 0.750000 0.050000
0.150000 0.750000 0.050000
0.200000 0.750000 0.050000
0.250000 0.750000 0.050000
0.300000 0.750000 0.050000
0.350000 0.750000 0.050000
0.400000 0.750000 0.050000
0.450000 0.750000 0.050000
0.500000 0.750000 0.050000
0.550000 0.750000 0.050000
0.600000 0.750000 0.050000
0.650000 0.750000 0.050000
0.700000 0.750000 0.050000
0.750000 0.750000 0.050000
0.800000 0.750000 0.050000
0.850000 0.750000 0.050000
0.900000 0.750000 0.050000
0.950000 0.750000 0.050000
0.050000 0.800000 0.050000
0.100000 0.800000 0.050000
0.150000 0.800000 0.050000
0.200000 0.800000 0.050000
0.250000 0.800000 0.050000
0.300000 0.800000 0.050000
0.350000 0.800000 0.050000
0.400000 0.800000 0.050000
0.450000 0.800000 0.050000
0.500000 0.800000 0.050000
0.550000 0.800000 0.050000
0.600000 0.800000 0.050000
0.650000 0.800000 0.050000
0.700000 0.800000 0.050000
0.750000 0.800000 0.050000
0.800000 0.800000 0.050000
0.850000 0.800000 0.050000
0.900000 0.800000 0.050000
0.950000 0.800000 0.050000
0.050000 0.850000 0.050000
0.100000 0.850000 0.050000
0.150000 0.850000 0.050000
0.200000 0.850000 0.050000
0.250000 0.850000 0.050000
0.300000 0.850000 0.050000
0.350000 0.850000 0.050000
0.400000 0.850000 0.050000
0.450000 0.850000 0.050000
0.500000 0.850000 0.050000
0.550000 0.850000 0.050000
0.600000 0.850000 0.050000
0.650000 0.850000 0.050000
0.700000 0.850000 0.050000
0.750000 0.850000 0.050000
0.800000 0.850000 0.050000
0.850000 0.850000 0.050000
0.900000 0.850000 0.050000
0.950000 0.850000 0.050000
0.050000 0.900000 0.050000
0.100000 0.900000 0.050000
0.150000 0.900000 0.050000
0.200000 0.900000 0.050000
0.250000 0.900000 0.050000
0.300000 0.900000 0.050000
0.350000 0.900000 0.050000
0.400000 0.900000 0.050000
0.450000 0.900000 0.050000
0.500000 0.900000 0.050000
0.550000 0.900000 0.050000
0.600000 0.900000 0.050000
0.650000 0.900000 0.050000
0.700000 0.900000 0.050000
0.750000 0.900000 0.050000
0.800000 0.900000 0.050000
0.850000 0.900000 0.050000
0.900000 0.900000 0.050000
0.950000 0.900000 0.050000
0.050000 0.950000 0.050000
0.100000 0.950000 0.050000
0.150000 0.950000 0.050000
0.200000 0.950000 0.050000
0.250000 0.950000 0.050000
0.300000 0.950000 0.050000
0.350000 0.950000 0.050000
0.400000 0.950000 0.050000
0.450000 0.950000 0.050000
0.500000 0.950000 0.050000
0.550000 0.950000 0.050000
0.600000 0.950000 0.050000
0.650000 0.950000 0.050000
0.700000 0.950000 0.050000
0.750000 0.950000 0.050000
0.800000 0.950000 0.050000
0.850000 0.950000 0.050000
0.900000 0.950000 0.050000
0.950000 0.950000 0.050000
0.050000 0.050000 0.100000
0.100000 0.050000 0.100000
0.150000 0.050000 0.100000
0.200000 0.050000 0.100000
0.250000 0.050000 0.100000
[...]
POINT_DATA 6859 
SCALARS density float 1 
LOOKUP_TABLE default 
0.999407
0.999371
0.999408
0.999520
0.999709
0.999975
1.000310
1.000703
1.001137
1.001593
1.002052
1.002492
1.002893
1.003238
1.003513
1.003709
1.003822
1.003855
1.003808
0.999434
0.999392
0.999422
0.999531
0.999720
0.999985
1.000320
1.000711
1.001142
1.001595
1.002051
1.002489
1.002889
1.003235
1.003512
1.003708
1.003819
1.003845
1.003791
0.999387
0.999347
0.999379
0.999492
0.999687
0.999960
1.000301
1.000698
1.001135
1.001594
1.002056
1.002501
1.002910
1.003265
1.003550
1.003755
1.003872
1.003899
1.003848
0.999244
0.999207
0.999247
0.999374
0.999585
0.999876
1.000237
1.000653
1.001110
1.001589
1.002072
1.002539
1.002970
1.003348
1.003655
1.003879
1.004012
1.004050
1.004002
0.998975
0.998947
0.999004
0.999155
0.999398
0.999722
1.000117
1.000570
1.001064
1.001581
1.002102
1.002608
1.003079
1.003496
1.003842
1.004102
1.004264
1.004321
1.004283
0.998548
0.998541
0.998628
0.998819
0.999106
0.999485
0.999934
1.000442
1.000993
1.001568
1.002148
1.002714
1.003245
1.003722
1.004129
1.004441
1.004649
1.004741
1.004726
0.997924
0.997956
0.998093
0.998343
0.998697
0.999145
0.999679
1.000265
1.000894
1.001550
1.002211
1.002860
1.003474
1.004042
1.004528
1.004917
1.005193
1.005342
1.005372
0.997059
0.997155
0.997368
0.997704
0.998151
0.998697
0.999324
1.000031
1.000765
1.001526
1.002295
1.003052
1.003792
1.004465
1.005059
1.005554
1.005929
1.006165
1.006269
0.995892
0.996092
0.996414
0.996871
0.997443
0.998119
0.998876
0.999702
1.000601
1.001496
1.002401
1.003324
1.004194
1.005008
1.005747
1.006384
1.006897
1.007259
1.007483
0.994351
0.994706
0.995188
0.995807
0.996547
0.997388
0.998313
0.999302
1.000341
1.001460
1.002582
1.003657
1.004699
1.005696
1.006618
1.007445
1.008144
1.008691
1.009095
0.992330
0.992924
0.993626
0.994470
0.995426
0.996483
0.997612
0.998805
1.000039
1.001404
1.002798
1.004073
1.005333
1.006550
1.007713
1.008781
1.009738
1.010538
1.011223
0.989710
0.990644
0.991664
0.992801
0.994046
0.995366
0.996755
0.998181
0.999824
1.001347
1.002887
1.004608
1.006114
1.007613
1.009065
1.010459
1.011749
1.012918
1.014001
0.986285
0.987747
0.989193
0.990742
0.992342
0.994008
0.995686
0.997724
0.999500
1.001282
1.003085
1.004921
1.007107
1.008918
1.010752
1.012542
1.014300
1.015960
1.017665
0.981846
0.984038
0.986116
0.988177
0.990263
0.992306
0.994956
0.997069
0.999147
1.001212
1.003301
1.005452
1.007684
1.010587
1.012831
1.015165
1.017503
1.019888
1.022458
0.975933
0.979304
0.982196
0.984998
0.987607
0.991274
0.993881
0.996370
0.998766
1.001139
1.003542
1.006024
1.008657
1.011465
1.015545
1.018455
1.021628
1.024949
1.028912
0.968088
0.973064
0.977212
0.980813
0.986246
0.989644
0.992757
0.995630
0.998377
1.001071
1.003799
1.006648
1.009693
1.013053
1.016770
1.022881
1.026942
1.031701
1.037575
0.956862
0.964679
0.970276
0.978995
0.983758
0.987922
0.991560
0.994880
0.997986
1.001016
1.004086
1.007310
1.010835
1.014769
1.019341
1.024620
1.034510
1.040911
1.050170
0.940090
0.951997
0.967448
0.974906
0.981004
0.986008
0.990312
0.994103
0.997605
1.000981
1.004401
1.008040
1.012070
1.016738
1.022255
1.029066
1.037471
1.055226
1.069435
0.906030
0.944140
0.958764
0.969396
0.977289
0.983624
0.988769
0.993199
0.997168
1.000955
1.004792
1.008917
1.013635
1.019236
1.026276
1.035201
1.047433
1.064525
1.111331
0.999459
0.999390
0.999412
0.999513
0.999695
0.999958
1.000295
1.000693
1.001134
1.001599
1.002066
1.002513
1.002919
1.003266
1.003538
1.003727
1.003828
1.003845
1.003766
0.999527
0.999446
0.999462
0.999560
0.999739
0.999998
1.000329
1.000717
1.001147
1.001600
1.002055
1.002491
1.002889
1.003230
1.003499
1.003685
1.003784
1.003795
1.003705
0.999516
0.999429
0.999443
0.999540
0.999723
0.999986
1.000320
1.000712
1.001144
1.001599
1.002056
1.002496
1.002899
1.003245
1.003520
1.003711
1.003811
1.003820
1.003724
0.999412
0.999318
0.999339
0.999446
0.999641
0.999918
1.000268
1.000675
1.001124
1.001595
1.002070
1.002527
1.002947
1.003312
1.003604
1.003810
1.003922
1.003940
1.003836
0.999186
0.999088
0.999123
0.999250
0.999472
0.999778
1.000159
1.000599
1.001081
1.001587
1.002097
1.002591
1.003047
1.003447
1.003772
1.004009
1.004145
1.004179
1.004071
0.998805
0.998712
0.998771
0.998932
0.999194
0.999551
0.999983
1.000476
1.001013
1.001576
1.002142
1.002693
1.003207
1.003663
1.004045
1.004328
1.004503
1.004566
1.004464
0.998231
0.998158
0.998259
0.998472
0.998794
0.999215
0.999728
1.000300
1.000916
1.001559
1.002207
1.002840
1.003436
1.003979
1.004434
1.004787
1.005022
1.005133
1.005055
0.997421
0.997389
0.997556
0.997845
0.998252
0.998764
0.999369
1.000059
1.000785
1.001536
1.002294
1.003040
1.003759
1.004404
1.004961
1.005410
1.005733
1.005920
1.005890
0.996318
0.996360
0.996625
0.997022
0.997543
0.998177
0.998907
0.999717
1.000609
1.001506
1.002411
1.003324
1.004174
1.004956
1.005648
1.006228
1.006675
1.006977
1.007033
0.994850
0.995012
0.995421
0.995966
0.996642
0.997434
0.998324
0.999295
1.000335
1.001467
1.002604
1.003676
1.004698
1.005655
1.006523
1.007278
1.007897
1.008364
1.008561
0.992922
0.993274
0.993886
0.994636
0.995516
0.996511
0.997602
0.998774
1.000022
1.001407
1.002821
1.004113
1.005351
1.006527
1.007621
1.008606
1.009459
1.010163
1.010583
0.990412
0.991050
0.991954
0.992979
0.994128
0.995379
0.996721
0.998154
0.999798
1.001344
1.002910
1.004634
1.006154
1.007603
1.008982
1.010269
1.011437
1.012479
1.013237
0.987141
0.988221
0.989530
0.990933
0.992426
0.994006
0.995684
0.997702
0.999495
1.001277
1.003079
1.004938
1.007104
1.008924
1.010665
1.012338
1.013936
1.015447
1.016726
0.982879
0.984608
0.986502
0.988401
0.990348
0.992385
0.994985
0.997109
0.999165
1.001208
1.003275
1.005403
1.007652
1.010497
1.012746
1.014926
1.017086
1.019270
1.021316
0.977235
0.979984
0.982672
0.985254
0.987862
0.991427
0.994042
0.996477
0.998823
1.001142
1.003490
1.005920
1.008496
1.011314
1.015271
1.018189
1.021115
1.024212
1.027457
0.969660
0.973902
0.977757
0.981375
0.986625
0.990028
0.993044
0.995829
0.998483
1.001086
1.003722
1.006475
1.009425
1.012678
1.016401
1.022276
1.026367
1.030787
1.035797
0.958868
0.965635
0.971370
0.979742
0.984520
0.988514
0.992007
0.995178
0.998146
1.001040
1.003971
1.007055
1.010425
1.014205
1.018590
1.023885
1.033317
1.039883
1.047852
0.942150
0.953793
0.968664
0.976194
0.982031
0.986811
0.990891
0.994483
0.997794
1.000989
1.004227
1.007674
1.011504
1.015942
1.021227
1.027757
1.036247
1.053224
1.067043
0.912506
0.947071
0.961783
0.971747
0.979136
0.984980
0.989730
0.993797
0.997447
1.000928
1.004459
1.008266
1.012617
1.017817
1.024342
1.032733
1.044202
1.061421
1.103269
0.999513
0.999429
0.999434
0.999527
0.999703
0.999963
1.000298
1.000696
1.001139
1.001606
1.002075
1.002524
1.002930
1.003274
1.003542
1.003724
1.003816
1.003817
1.003721
0.999607
0.999505
0.999496
0.999583
0.999754
1.000008
1.000335
1.000723
1.001153
1.001606
1.002062
1.002498
1.002894
1.003231
1.003494
1.003672
1.003759
1.003745
1.003633
0.999626
0.999523
0.999506
0.999591
0.999764
1.000018
1.000344
1.000729
1.001156
1.001605
1.002057
1.002490
1.002885
1.003223
1.003487
1.003667
1.003754
1.003732
1.003620
0.999550
0.999441
0.999424
0.999515
0.999696
0.999962
1.000301
1.000699
1.001139
1.001602
1.002067
1.002515
1.002925
1.003278
1.003556
1.003747
1.003842
1.003822
1.003702
0.999355
0.999240
0.999228
0.999337
0.999541
0.999833
1.000200
1.000628
1.001100
1.001595
1.002093
1.002574
1.003017
1.003401
1.003709
1.003927
1.004042
1.004030
1.003905
0.999005
0.998893
0.998896
0.999035
0.999275
0.999614
1.000029
1.000510
1.001034
1.001584
1.002138
1.002674
1.003172
1.003609
1.003969
1.004229
1.004379
1.004385
1.004263
0.998465
0.998369
0.998402
0.998587
0.998883
0.999282
0.999776
1.000332
1.000937
1.001568
1.002203
1.002822
1.003401
1.003921
1.004350
1.004673
1.004879
1.004920
1.004818
0.997689
0.997630
0.997715
0.997970
0.998344
0.998830
0.999413
1.000087
1.000801
1.001545
1.002295
1.003026
1.003726
1.004346
1.004872
1.005286
1.005572
1.005674
1.005616
0.996622
0.996633
0.996798
0.997153
0.997634
0.998236
0.998942
0.999736
1.000617
1.001513
1.002417
1.003317
1.004149
1.004903
1.005559
1.006095
1.006498
1.006694
1.006719
0.995196
0.995319
0.995608
0.996101
0.996730
0.997482
0.998345
0.999300
1.000340
1.001471
1.002606
1.003679
1.004684
1.005612
1.006436
1.007140
1.007703
1.008044
1.008201
0.993314
0.993623
0.994087
0.994776
0.995596
0.996547
0.997605
0.998774
1.000020
1.001405
1.002820
1.004112
1.005351
1.006492
1.007540
1.008461
1.009250
1.009796
1.010174
0.990863
0.991444
0.992173
0.993121
0.994204
0.995401
0.996734
0.998149
0.999787
1.001338
1.002909
1.004629
1.006134
1.007580
1.008901
1.010120
1.011207
1.012062
1.012763
0.987656
0.988676
0.989765
0.991087
0.992496
0.994065
0.995707
0.997705
0.999481
1.001267
1.003076
1.004919
1.007068
1.008853
1.010591
1.012177
1.013690
1.014963
1.016184
0.983494
0.985131
0.986772
0.988562
0.990503
0.992480
0.995040
0.997126
0.999178
1.001199
1.003244
1.005372
1.007583
1.010387
1.012575
1.014760
1.016805
1.018713
1.020668
0.977940
0.980599
0.982958
0.985571
0.988086
0.991590
0.994136
0.996561
0.998863
1.001139
1.003442
1.005827
1.008397
1.011145
1.015030
1.017849
1.020826
1.023555
1.026712
0.970513
0.974582
0.978310
0.981808
0.986964
0.990257
0.993262
0.995974
0.998559
1.001089
1.003652
1.006335
1.009212
1.012458
1.016064
1.021823
1.025781
1.030071
1.034890
0.959660
0.966749
0.972039
0.980321
0.984926
0.988925
0.992311
0.995384
0.998250
1.001042
1.003873
1.006854
1.010127
1.013802
1.018204
1.023316
1.032628
1.038672
1.047061
0.944808
0.955743
0.969994
0.977172
0.982968
0.987531
0.991420
0.994824
0.997963
1.000987
1.004056
1.007333
1.010978
1.015228
1.020296
1.026804
1.034926
1.051130
1.064027
0.914976
0.949006
0.962740
0.972946
0.980104
0.985748
0.990278
0.994151
0.997607
1.000903
1.004250
1.007864
1.012026
1.017009
1.023343
1.031504
1.043314
1.059300
1.100310
0.999562
0.999457
0.999451
0.999533
0.999704
0.999961
1.000296
1.000696
1.001142
1.001613
1.002086
1.002538
1.002945
1.003289
1.003553
1.003729
1.003810
1.003799
1.003681
0.999683
0.999557
0.999534
0.999605
0.999769
1.000018
1.000342
1.000728
1.001159
1.001613
1.002069
1.002505
1.002900
1.003233
1.003490
1.003660
1.003731
1.003703
1.003566
0.999724
0.999595
0.999562
0.999626
0.999789
1.000037
1.000358
1.000739
1.001164
1.001611
1.002061
1.002492
1.002883
1.003215
1.003472
1.003641
1.003707
1.003669
1.003529
0.999675
0.999538
0.999505
0.999571
0.999740
0.999996
1.000327
1.000718
1.001151
1.001608
1.002067
1.002508
1.002910
1.003253
1.003521
1.003699
1.003768
1.003731
1.003583
0.999505
0.999359
0.999330
0.999407
0.999597
0.999876
1.000233
1.000652
1.001115
1.001601
1.002091
1.002563
1.002995
1.003368
1.003662
1.003863
1.003948
1.003917
1.003759
0.999181
0.999033
0.999017
0.999118
0.999341
0.999664
1.000066
1.000535
1.001051
1.001591
1.002135
1.002661
1.003146
1.003569
1.003911
1.004152
1.004265
1.004250
1.004091
0.998666
0.998529
0.998540
0.998681
0.998956
0.999336
0.999815
1.000358
1.000952
1.001575
1.002201
1.002809
1.003373
1.003876
1.004284
1.004585
1.004746
1.004763
1.004619
0.997916
0.997811
0.997869
0.998071
0.998421
0.998885
0.999450
1.000110
1.000813
1.001551
1.002294
1.003014
1.003698
1.004298
1.004801
1.005189
1.005421
1.005496
1.005391
0.996874
0.996832
0.996968
0.997260
0.997713
0.998290
0.998977
0.999755
1.000629
1.001517
1.002412
1.003306
1.004121
1.004854
1.005485
1.005992
1.006330
1.006496
1.006466
0.995472
0.995539
0.995794
0.996213
0.996808
0.997532
0.998374
0.999322
1.000350
1.001471
1.002596
1.003659
1.004659
1.005564
1.006360
1.007030
1.007517
1.007824
1.007924
0.993618
0.993862
0.994291
0.994892
0.995675
0.996593
0.997641
0.998796
1.000030
1.001402
1.002803
1.004084
1.005310
1.006446
1.007460
1.008345
1.009043
1.009556
1.009868
0.991193
0.991710
0.992397
0.993245
0.994283
0.995470
0.996777
0.998173
0.999795
1.001331
1.002887
1.004591
1.006079
1.007502
1.008820
1.009994
1.010979
1.011795
1.012433
0.988024
0.988968
0.990019
0.991217
0.992626
0.994156
0.995767
0.997731
0.999484
1.001257
1.003054
1.004875
1.006990
1.008747
1.010448
1.012045
1.013428
1.014670
1.015816
0.983888
0.985461
0.987050
0.988782
0.990676
0.992609
0.995117
0.997164
0.999182
1.001188
1.003221
1.005316
1.007491
1.010240
1.012385
1.014525
1.016521
1.018381
1.020277
0.978385
0.980955
0.983405
0.985863
0.988327
0.991753
0.994242
0.996613
0.998894
1.001131
1.003396
1.005764
1.008281
1.010972
1.014772
1.017542
1.020349
1.023206
1.026274
0.970893
0.975175
0.978863
0.982187
0.987249
0.990463
0.993388
0.996078
0.998607
1.001083
1.003592
1.006220
1.009081
1.012251
1.015778
1.021430
1.025198
1.029453
1.034563
0.960995
0.967841
0.972997
0.980938
0.985405
0.989255
0.992596
0.995568
0.998340
1.001039
1.003777
1.006668
1.009844
1.013486
1.017740
1.022718
1.031631
1.037531
1.045605
0.946047
0.956887
0.970870
0.977740
0.983386
0.987948
0.991726
0.995028
0.998059
1.000980
1.003947
1.007120
1.010669
1.014818
1.019907
1.026277
1.034055
1.049924
1.062671
0.916110
0.949985
0.963532
0.973325
0.980655
0.986196
0.990625
0.994374
0.997712
1.000887
1.004113
1.007614
1.011657
1.016552
1.022793
1.031197
1.042509
1.058287
1.098991
0.999601
0.999475
0.999456
0.999529
0.999694
0.999949
1.000286
1.000689
1.001142
1.001620
1.002100
1.002557
1.002968
1.003313
1.003575
1.003744
1.003816
1.003791
1.003651
0.999748
0.999597
0.999558
0.999620
0.999774
1.000020
1.000343
1.000730
1.001162
1.001619
1.002078
1.002516
1.002911
1.003243
1.003496
1.003656
1.003717
1.003672
1.003509
0.999812
0.999656
0.999603
0.999657
0.999807
1.000049
1.000367
1.000746
1.001170
1.001617
1.002067
1.002497
1.002885
1.003213
1.003464
1.003621
1.003675
1.003618
1.003450
0.999784
0.999616
0.999562
0.999615
0.999768
1.000016
1.000342
1.000729
1.001159
1.001614
1.002071
1.002508
1.002906
1.003244
1.003503
1.003665
1.003720
1.003663
1.003482
0.999636
0.999456
0.999404
0.999468
0.999637
0.999906
1.000255
1.000667
1.001125
1.001607
1.002092
1.002558
1.002984
1.003348
1.003631
1.003813
1.003883
1.003828
1.003636
0.999333
0.999147
0.999104
0.999190
0.999389
0.999700
1.000092
1.000552
1.001061
1.001596
1.002135
1.002654
1.003131
1.003542
1.003872
1.004089
1.004186
1.004145
1.003946
0.998838
0.998658
0.998640
0.998763
0.999011
0.999377
0.999843
1.000376
1.000962
1.001579
1.002201
1.002800
1.003354
1.003844
1.004239
1.004512
1.004655
1.004643
1.004453
0.998107
0.997953
0.997980
0.998163
0.998481
0.998929
0.999480
1.000128
1.000824
1.001554
1.002290
1.003003
1.003676
1.004262
1.004750
1.005106
1.005319
1.005362
1.005205
0.997082
0.996988
0.997089
0.997360
0.997777
0.998337
0.999008
0.999778
1.000642
1.001518
1.002402
1.003286
1.004095
1.004813
1.005428
1.005898
1.006217
1.006349
1.006265
0.995697
0.995707
0.995925
0.996322
0.996876
0.997582
0.998416
0.999350
1.000364
1.001469
1.002579
1.003628
1.004616
1.005518
1.006297
1.006926
1.007393
1.007665
1.007706
0.993855
0.994043
0.994433
0.995013
0.995748
0.996660
0.997693
0.998832
1.000046
1.001397
1.002778
1.004040
1.005251
1.006374
1.007389
1.008227
1.008909
1.009384
1.009639
0.991446
0.991902
0.992555
0.993380
0.994391
0.995557
0.996843
0.998215
0.999814
1.001324
1.002854
1.004535
1.006000
1.007405
1.008706
1.009861
1.010827
1.011612
1.012189
0.988283
0.989179
0.990192
0.991415
0.992766
0.994271
0.995844
0.997778
0.999503
1.001249
1.003018
1.004811
1.006895
1.008616
1.010297
1.011836
1.013263
1.014470
1.015571
0.984164
0.985684
0.987321
0.989040
0.990864
0.992747
0.995213
0.997214
0.999197
1.001179
1.003188
1.005249
1.007378
1.010084
1.012182
1.014251
1.016242
1.018175
1.020021
0.978615
0.981312
0.983750
0.986196
0.988545
0.991920
0.994344
0.996667
0.998905
1.001120
1.003365
1.005693
1.008164
1.010791
1.014540
1.017189
1.019994
1.022849
1.026093
0.971628
0.975819
0.979451
0.982675
0.987583
0.990693
0.993539
0.996157
0.998650
1.001075
1.003533
1.006130
1.008923
1.012018
1.015442
1.020927
1.024592
1.028792
1.033785
0.961703
0.968541
0.973577
0.981436
0.985705
0.989474
0.992731
0.995676
0.998389
1.001032
1.003715
1.006551
1.009709
1.013274
1.017457
1.022220
1.031049
1.036809
1.044862
0.946696
0.957524
0.971463
0.978175
0.983653
0.988134
0.991911
0.995149
0.998117
1.000972
1.003876
1.006991
1.010482
1.014647
1.019671
1.025863
1.033472
1.049282
1.061988
0.916572
0.950512
0.963980
0.973682
0.980814
0.986455
0.990827
0.994516
0.997778
1.000877
1.004030
1.007458
1.011449
1.016297
1.022682
1.030858
1.042088
1.057775
1.098497
0.999631
0.999485
0.999453
0.999518
0.999678
0.999932
1.000271
1.000680
1.001139
1.001626
1.002114
1.002578
1.002994
1.003341
1.003601
1.003765
1.003829
1.003790
1.003630
0.999800
0.999626
0.999573
0.999624
0.999773
1.000014
1.000337
1.000727
1.001163
1.001625
1.002088
1.002530
1.002927
1.003259
1.003507
1.003661
1.003712
1.003652
1.003466
0.999883
0.999703
0.999633
0.999675
0.999819
1.000053
1.000369
1.000749
1.001173
1.001623
1.002074
1.002504
1.002893
1.003219
1.003463
1.003612
1.003654
1.003579
1.003386
0.999874
0.999678
0.999605
0.999644
0.999789
1.000028
1.000350
1.000735
1.001165
1.001619
1.002075
1.002512
1.002908
1.003241
1.003492
1.003645
1.003687
1.003609
1.003400
0.999745
0.999532
0.999457
0.999506
0.999666
0.999923
1.000266
1.000675
1.001131
1.001612
1.002095
1.002560
1.002982
1.003341
1.003613
1.003784
1.003839
1.003761
1.003535
0.999459
0.999236
0.999169
0.999238
0.999427
0.999723
1.000108
1.000563
1.001067
1.001600
1.002137
1.002652
1.003123
1.003528
1.003845
1.004051
1.004132
1.004065
1.003828
0.998980
0.998759
0.998713
0.998819
0.999055
0.999404
0.999862
1.000388
1.000970
1.001582
1.002199
1.002795
1.003343
1.003826
1.004204
1.004467
1.004592
1.004552
1.004320
0.998262
0.998064
0.998061
0.998225
0.998531
0.998961
0.999503
1.000145
1.000833
1.001555
1.002284
1.002991
1.003660
1.004238
1.004709
1.005054
1.005249
1.005262
1.005059
0.997250
0.997108
0.997178
0.997430
0.997835
0.998375
0.999040
0.999800
1.000653
1.001517
1.002390
1.003265
1.004065
1.004782
1.005378
1.005840
1.006140
1.006241
1.006106
0.995874
0.995835
0.996022
0.996400
0.996943
0.997635
0.998459
0.999380
1.000378
1.001467
1.002561
1.003595
1.004572
1.005466
1.006236
1.006857
1.007308
1.007549
1.007540
0.994042
0.994179
0.994541
0.995101
0.995841
0.996731
0.997751
0.998871
1.000064
1.001393
1.002752
1.003994
1.005187
1.006300
1.007296
1.008147
1.008812
1.009262
1.009464
0.991635
0.992050
0.992673
0.993508
0.994512
0.995650
0.996915
0.998263
0.999835
1.001318
1.002821
1.004475
1.005918
1.007304
1.008579
1.009733
1.010721
1.011480
1.012015
0.988480
0.989333
0.990369
0.991584
0.992926
0.994384
0.995930
0.997833
0.999528
1.001242
1.002978
1.004742
1.006795
1.008491
1.010125
1.011664
1.013087
1.014334
1.015393
0.984334
0.985916
0.987548
0.989260
0.991055
0.992882
0.995306
0.997270
0.999220
1.001171
1.003147
1.005176
1.007268
1.009933
1.011976
1.014021
1.016014
1.017950
1.019887
0.979059
0.981708
0.984122
0.986512
0.988815
0.992097
0.994466
0.996733
0.998928
1.001112
1.003326
1.005612
1.008029
1.010603
1.014254
1.016862
1.019613
1.022447
1.025635
0.972069
0.976262
0.979835
0.983013
0.987853
0.990867
0.993646
0.996214
0.998664
1.001065
1.003503
1.006060
1.008808
1.011839
1.015165
1.020582
1.024206
1.028340
1.033334
0.962130
0.968967
0.973986
0.981767
0.985973
0.989622
0.992827
0.995721
0.998415
1.001023
1.003673
1.006496
1.009610
1.013132
1.017190
1.021898
1.030640
1.036384
1.044428
0.947035
0.957903
0.971827
0.978494
0.983874
0.988257
0.991985
0.995218
0.998147
1.000965
1.003832
1.006912
1.010410
1.014539
1.019465
1.025560
1.033130
1.048918
1.061653
0.916798
0.950801
0.964268
0.973912
0.980989
0.986521
0.990945
0.994597
0.997819
1.000872
1.003979
1.007371
1.011333
1.016256
1.022523
1.030655
1.041832
1.057524
1.098281
0.999653
0.999489
0.999446
0.999503
0.999660
0.999913
1.000254
1.000669
1.001136
1.001630
1.002127
1.002598
1.003020
1.003369
1.003629
1.003788
1.003844
1.003793
1.003615
0.999839
0.999646
0.999580
0.999623
0.999767
1.000006
1.000329
1.000721
1.001162
1.001629
1.002098
1.002544
1.002944
1.003276
1.003522
1.003671
1.003713
1.003639
1.003434
0.999938
0.999737
0.999653
0.999685
0.999822
1.000054
1.000367
1.000748
1.001175
1.001627
1.002081