# vtk DataFile Version 2.0
generated by CFD-lab course output 
ASCII

DATASET UNSTRUCTURED_GRID
POINTS 6859 float

0.050000 0.050000 0.050000
0.100000 0.050000 0.050000
0.150000 0.050000 0.050000
0.200000 0.050000 0.050000
0.250000 0.050000 0.050000
0.300000 0.050000 0.050000
0.350000 0.050000 0.050000
0.400000 0.050000 0.050000
0.450000 0.050000 0.050000
0.500000 0.050000 0.050000
0.550000 0.050000 0.050000
0.600000 0.050000 0.050000
0.650000 0.050000 0.050000
0.700000 0.050000 0.050000
0.750000 0.050000 0.050000
0.800000 0.050000 0.050000
0.850000 0.050000 0.050000
0.900000 0.050000 0.050000
0.950000 0.050000 0.050000
0.050000 0.100000 0.050000
0.100000 0.100000 0.050000
0.150000 0.100000 0.050000
0.200000 0.100000 0.050000
0.250000 0.100000 0.050000
0.300000 0.100000 0.050000
0.350000 0.100000 0.050000
0.400000 0.100000 0.050000
0.450000 0.100000 0.050000
0.500000 0.100000 0.050000
0.550000 0.100000 0.050000
0.600000 0.100000 0.050000
0.650000 0.100000 0.050000
0.700000 0.100000 0.050000
0.750000 0.100000 0.050000
0.800000 0.100000 0.050000
0.850000 0.100000 0.050000
0.900000 0.100000 0.050000
0.950000 0.100000 0.050000
0.050000 0.150000 0.050000
0.100000 0.150000 0.050000
0.150000 0.150000 0.050000
0.200000 0.150000 0.050000
0.250000 0.150000 0.050000
0.300000 0.150000 0.050000
0.350000 0.150000 0.050000
0.400000 0.150000 0.050000
0.450000 0.150000 0.050000
0.500000 0.150000 0.050000
0.550000 0.150000 0.050000
0.600000 0.150000 0.050000
0.650000 0.150000 0.050000
0.700000 0.150000 0.050000
0.750000 0.150000 0.050000
0.800000 0.150000 0.050000
0.850000 0.150000 0.050000
0.900000 0.150000 0.050000
0.950000 0.150000 0.050000
0.050000 0.200000 0.050000
0.100000 0.200000 0.050000
0.150000 0.200000 0.050000
0.200000 0.200000 0.050000
0.250000 0.200000 0.050000
0.300000 0.200000 0.050000
0.350000 0.200000 0.050000
0.400000 0.200000 0.050000
0.450000 0.200000 0.050000
0.500000 0.200000 0.050000
0.550000 0.200000 0.050000
0.600000 0.200000 0.050000
0.650000 0.200000 0.050000
0.700000 0.200000 0.050000
0.750000 0.200000 0.050000
0.800000 0.200000 0.050000
0.850000 0.200000 0.050000
0.900000 0.200000 0.050000
0.950000 0.200000 0.050000
0.050000 0.250000 0.050000
0.100000 0.250000 0.050000
0.150000 0.250000 0.050000
0.200000 0.250000 0.050000
0.250000 0.250000 0.050000
0.300000 0.250000 0.050000
0.350000 0.250000 0.050000
0.400000 0.250000 0.050000
0.450000 0.250000 0.050000
0.500000 0.250000 0.050000
0.550000 0.250000 0.050000
0.600000 0.250000 0.050000
0.650000 0.250000 0.050000
0.700000 0.250000 0.050000
0.750000 0.250000 0.050000
0.800000 0.250000 0.050000
0.850000 0.250000 0.050000
0.900000 0.250000 0.050000
0.950000 0.250000 0.050000
0.050000 0.300000 0.050000
0.100000 0.300000 0.050000
0.150000 0.300000 0.050000
0.200000 0.300000 0.050000
0.250000 0.300000 0.050000
0.300000 0.300000 0.050000
0.350000 0.300000 0.050000
0.400000 0.300000 0.050000
0.450000 0.300000 0.050000
0.500000 0.300000 0.050000
0.550000 0.300000 0.050000
0.600000 0.300000 0.050000
0.650000 0.300000 0.050000
0.700000 0.300000 0.050000
0.750000 0.300000 0.050000
0.800000 0.300000 0.050000
0.850000 0.300000 0.050000
0.900000 0.300000 0.050000
0.950000 0.300000 0.050000
0.050000 0.350000 0.050000
0.100000 0.350000 0.050000
0.150000 0.350000 0.050000
0.200000 0.350000 0.050000
0.250000 0.350000 0.050000
0.300000 0.350000 0.050000
0.350000 0.350000 0.050000
0.400000 0.350000 0.050000
0.450000 0.350000 0.050000
0.500000 0.350000 0.050000
0.550000 0.350000 0.050000
0.600000 0.350000 0.050000
0.650000 0.350000 0.050000
0.700000 0.350000 0.050000
0.750000 0.350000 0.050000
0.800000 0.350000 0.050000
0.850000 0.350000 0.050000
0.900000 0.350000 0.050000
0.950000 0.350000 0.050000
0.050000 0.400000 0.050000
0.100000 0.400000 0.050000
0.150000 0.400000 0.050000
0.200000 0.400000 0.050000
0.250000 0.400000 0.050000
0.300000 0.400000 0.050000
0.350000 0.400000 0.050000
0.400000 0.400000 0.050000
0.450000 0.400000 0.050000
0.500000 0.400000 0.050000
0.550000 0.400000 0.050000
0.600000 0.400000 0.050000
0.650000 0.400000 0.050000
0.700000 0.400000 0.050000
0.750000 0.400000 0.050000
0.800000 0.400000 0.050000
0.850000 0.400000 0.050000
0.900000 0.400000 0.050000
0.950000 0.400000 0.050000
0.050000 0.450000 0.050000
0.100000 0.450000 0.050000
0.150000 0.450000 0.050000
0.200000 0.450000 0.050000
0.250000 0.450000 0.050000
0.300000 0.450000 0.050000
0.350000 0.450000 0.050000
0.400000 0.450000 0.050000
0.450000 0.450000 0.050000
0.500000 0.450000 0.050000
0.550000 0.450000 0.050000
0.600000 0.450000 0.050000
0.650000 0.450000 0.050000
0.700000 0.450000 0.050000
0.750000 0.450000 0.050000
0.800000 0.450000 0.050000
0.850000 0.450000 0.050000
0.900000 0.450000 0.050000
0.950000 0.450000 0.050000
0.050000 0.500000 0.050000
0.100000 0.500000 0.050000
0.150000 0.500000 0.050000
0.200000 0.500000 0.050000
0.250000 0.500000 0.050000
0.300000 0.500000 0.050000
0.350000 0.500000 0.050000
0.400000 0.500000 0.050000
0.450000 0.500000 0.050000
0.500000 0.500000 0.050000
0.550000 0.500000 0.050000
0.600000 0.500000 0.050000
0.650000 0.500000 0.050000
0.700000 0.500000 0.050000
0.750000 0.500000 0.050000
0.800000 0.500000 0.050000
0.850000 0.500000 0.050000
0.900000 0.500000 0.050000
0.950000 0.500000 0.050000
0.050000 0.550000 0.050000
0.100000 0.550000 0.050000
0.150000 0.550000 0.050000
0.200000 0.550000 0.050000
0.250000 0.550000 0.050000
0.300000 0.550000 0.050000
0.350000 0.550000 0.050000
0.400000 0.550000 0.050000
0.450000 0.550000 0.050000
0.500000 0.550000 0.050000
0.550000 0.550000 0.050000
0.600000 0.550000 0.050000
0.650000 0.550000 0.050000
0.700000 0.550000 0.050000
0.750000 0.550000 0.050000
0.800000 0.550000 0.050000
0.850000 0.550000 0.050000
0.900000 0.550000 0.050000
0.950000 0.550000 0.050000
0.050000 0.600000 0.050000
0.100000 0.600000 0.050000
0.150000 0.600000 0.050000
0.200000 0.600000 0.050000
0.250000 0.600000 0.050000
0.300000 0.600000 0.050000
0.350000 0.600000 0.050000
0.400000 0.600000 0.050000
0.450000 0.600000 0.050000
0.500000 0.600000 0.050000
0.550000 0.600000 0.050000
0.600000 0.600000 0.050000
0.650000 0.600000 0.050000
0.700000 0.600000 0.050000
0.750000 0.600000 0.050000
0.800000 0.600000 0.050000
0.850000 0.600000 0.050000
0.900000 0.600000 0.050000
0.950000 0.600000 0.050000
0.050000 0.650000 0.050000
0.100000 0.650000 0.050000
0.150000 0.650000 0.050000
0.200000 0.650000 0.050000
0.250000 0.650000 0.050000
0.300000 0.650000 0.050000
0.350000 0.650000 0.050000
0.400000 0.650000 0.050000
0.450000 0.650000 0.050000
0.500000 0.650000 0.050000
0.550000 0.650000 0.050000
0.600000 0.650000 0.050000
0.650000 0.650000 0.050000
0.700000 0.650000 0.050000
0.750000 0.650000 0.050000
0.800000 0.650000 0.050000
0.850000 0.650000 0.050000
0.900000 0.650000 0.050000
0.950000 0.650000 0.050000
0.050000 0.700000 0.050000
0.100000 0.700000 0.050000
0.150000 0.700000 0.050000
0.200000 0.700000 0.050000
0.250000 0.700000 0.050000
0.300000 0.700000 0.050000
0.350000 0.700000 0.050000
0.400000 0.700000 0.050000
0.450000 0.700000 0.050000
0.500000 0.700000 0.050000
0.550000 0.700000 0.050000
0.600000 0.700000 0.050000
0.650000 0.700000 0.050000
0.700000 0.700000 0.050000
0.750000 0.700000 0.050000
0.800000 0.700000 0.050000
0.850000 0.700000 0.050000
0.900000 0.700000 0.050000
0.950000 0.700000 0.050000
0.050000 0.750000 0.050000
0.100000 0.750000 0.050000
0.150000 0.750000 0.050000
0.200000 0.750000 0.050000
0.250000 0.750000 0.050000
0.300000 0.750000 0.050000
0.350000 0.750000 0.050000
0.400000 0.750000 0.050000
0.450000 0.750000 0.050000
0.500000 0.750000 0.050000
0.550000 0.750000 0.050000
0.600000 0.750000 0.050000
0.650000 0.750000 0.050000
0.700000 0.750000 0.050000
0.750000 0.750000 0.050000
0.800000 0.750000 0.050000
0.850000 0.750000 0.050000
0.900000 0.750000 0.050000
0.950000 0.750000 0.050000
0.050000 0.800000 0.050000
0.100000 0.800000 0.050000
0.150000 0.800000 0.050000
0.200000 0.800000 0.050000
0.250000 0.800000 0.050000
0.300000 0.800000 0.050000
0.350000 0.800000 0.050000
0.400000 0.800000 0.050000
0.450000 0.800000 0.050000
0.500000 0.800000 0.050000
0.550000 0.800000 0.050000
0.600000 0.800000 0.050000
0.650000 0.800000 0.050000
0.700000 0.800000 0.050000
0.750000 0.800000 0.050000
0.800000 0.800000 0.050000
0.850000 0.800000 0.050000
0.900000 0.800000 0.050000
0.950000 0.800000 0.050000
0.050000 0.850000 0.050000
0.100000 0.850000 0.050000
0.150000 0.850000 0.050000
0.200000 0.850000 0.050000
0.250000 0.850000 0.050000
0.300000 0.850000 0.050000
0.350000 0.850000 0.050000
0.400000 0.850000 0.050000
0.450000 0.850000 0.050000
0.500000 0.850000 0.050000
0.550000 0.850000 0.050000
0.600000 0.850000 0.050000
0.650000 0.850000 0.050000
0.700000 0.850000 0.050000
0.750000 0.850000 0.050000
0.800000 0.850000 0.050000
0.850000 0.850000 0.050000
0.900000 0.850000 0.050000
0.950000 0.850000 0.050000
0.050000 0.900000 0.050000
0.100000 0.900000 0.050000
0.150000 0.900000 0.050000
0.200000 0.900000 0.050000
0.250000 0.900000 0.050000
0.300000 0.900000 0.050000
0.350000 0.900000 0.050000
0.400000 0.900000 0.050000
0.450000 0.900000 0.050000
0.500000 0.900000 0.050000
0.550000 0.900000 0.050000
0.600000 0.900000 0.050000
0.650000 0.900000 0.050000
0.700000 0.900000 0.050000
0.750000 0.900000 0.050000
0.800000 0.900000 0.050000
0.850000 0.900000 0.050000
0.900000 0.900000 0.050000
0.950000 0.900000 0.050000
0.050000 0.950000 0.050000
0.100000 0.950000 0.050000
0.150000 0.950000 0.050000
0.200000 0.950000 0.050000
0.250000 0.950000 0.050000
0.300000 0.950000 0.050000
0.350000 0.950000 0.050000
0.400000 0.950000 0.050000
0.450000 0.950000 0.050000
0.500000 0.950000 0.050000
0.550000 0.950000 0.050000
0.600000 0.950000 0.050000
0.650000 0.950000 0.050000
0.700000 0.950000 0.050000
0.750000 0.950000 0.050000
0.800000 0.950000 0.050000
0.850000 0.950000 0.050000
0.900000 0.950000 0.050000
0.950000 0.950000 0.050000
0.050000 0.050000 0.100000
0.100000 0.050000 0.100000
0.150000 0.050000 0.100000
0.200000 0.050000 0.100000
0.250000 0.050000 0.100000
[...]
POINT_DATA 6859 
SCALARS density float 1 
LOOKUP_TABLE default 
0.998528
0.998494
0.998533
0.998646
0.998837
0.999105
0.999443
0.999839
1.000276
1.000736
1.001197
1.001640
1.002045
1.002393
1.002670
1.002868
1.002982
1.003017
1.002971
0.998557
0.998515
0.998547
0.998658
0.998848
0.999117
0.999454
0.999847
1.000281
1.000738
1.001196
1.001637
1.002041
1.002389
1.002668
1.002866
1.002979
1.003006
1.002954
0.998511
0.998472
0.998505
0.998620
0.998817
0.999092
0.999435
0.999835
1.000275
1.000736
1.001201
1.001649
1.002060
1.002418
1.002706
1.002912
1.003030
1.003060
1.003009
0.998368
0.998332
0.998374
0.998502
0.998715
0.999008
0.999371
0.999791
1.000250
1.000732
1.001217
1.001687
1.002121
1.002501
1.002811
1.003036
1.003171
1.003210
1.003163
0.998100
0.998074
0.998132
0.998285
0.998529
0.998855
0.999252
0.999708
1.000204
1.000723
1.001247
1.001756
1.002229
1.002649
1.002996
1.003258
1.003421
1.003480
1.003443
0.997674
0.997668
0.997757
0.997949
0.998238
0.998619
0.999070
0.999581
1.000133
1.000711
1.001293
1.001861
1.002395
1.002874
1.003283
1.003597
1.003806
1.003900
1.003886
0.997052
0.997085
0.997223
0.997475
0.997830
0.998280
0.998815
0.999403
1.000035
1.000693
1.001357
1.002007
1.002624
1.003194
1.003682
1.004072
1.004350
1.004500
1.004530
0.996188
0.996286
0.996499
0.996836
0.997285
0.997832
0.998462
0.999170
0.999906
1.000669
1.001441
1.002200
1.002942
1.003616
1.004213
1.004709
1.005085
1.005323
1.005427
0.995022
0.995224
0.995547
0.996004
0.996578
0.997255
0.998014
0.998841
0.999742
1.000640
1.001547
1.002471
1.003343
1.004159
1.004900
1.005538
1.006052
1.006416
1.006640
0.993483
0.993839
0.994322
0.994941
0.995683
0.996525
0.997452
0.998442
0.999484
1.000605
1.001728
1.002804
1.003849
1.004847
1.005771
1.006598
1.007298
1.007846
1.008251
0.991464
0.992059
0.992761
0.993606
0.994563
0.995621
0.996752
0.997946
0.999181
1.000548
1.001944
1.003221
1.004482
1.005701
1.006864
1.007933
1.008891
1.009692
1.010377
0.988846
0.989780
0.990802
0.991939
0.993185
0.994506
0.995896
0.997323
0.998968
1.000492
1.002033
1.003755
1.005263
1.006763
1.008216
1.009611
1.010901
1.012071
1.013154
0.985424
0.986887
0.988332
0.989881
0.991482
0.993148
0.994828
0.996867
0.998644
1.000427
1.002231
1.004069
1.006256
1.008067
1.009902
1.011693
1.013451
1.015110
1.016816
0.980990
0.983181
0.985258
0.987319
0.989405
0.991448
0.994098
0.996212
0.998291
1.000357
1.002447
1.004600
1.006833
1.009735
1.011980
1.014314
1.016651
1.019036
1.021605
0.975081
0.978450
0.981341
0.984141
0.986751
0.990417
0.993024
0.995513
0.997910
1.000285
1.002688
1.005171
1.007805
1.010613
1.014693
1.017602
1.020774
1.024094
1.028055
0.967242
0.972215
0.976361
0.979960
0.985390
0.988788
0.991901
0.994774
0.997522
1.000217
1.002945
1.005796
1.008841
1.012200
1.015917
1.022024
1.026084
1.030840
1.036710
0.956025
0.963837
0.969430
0.978143
0.982903
0.987067
0.990704
0.994024
0.997131
1.000162
1.003232
1.006457
1.009982
1.013916
1.018486
1.023763
1.033647
1.040044
1.049296
0.939268
0.951165
0.966604
0.974057
0.980152
0.985154
0.989457
0.993248
0.996750
1.000127
1.003548
1.007187
1.011217
1.015883
1.021398
1.028206
1.036606
1.054347
1.068546
0.905236
0.943314
0.957927
0.968551
0.976439
0.982771
0.987915
0.992345
0.996314
1.000101
1.003939
1.008063
1.012781
1.018380
1.025417
1.034337
1.046560
1.063640
1.110408
0.998581
0.998514
0.998537
0.998639
0.998824
0.999090
0.999429
0.999830
1.000274
1.000742
1.001211
1.001661
1.002070
1.002420
1.002694
1.002885
1.002988
1.003007
1.002928
0.998650
0.998570
0.998588
0.998687
0.998869
0.999130
0.999463
0.999854
1.000287
1.000742
1.001200
1.001639
1.002040
1.002383
1.002654
1.002843
1.002944
1.002956
1.002866
0.998641
0.998555
0.998570
0.998669
0.998853
0.999119
0.999455
0.999849
1.000284
1.000741
1.001202
1.001644
1.002049
1.002398
1.002675
1.002868
1.002969
1.002980
1.002884
0.998538
0.998445
0.998467
0.998575
0.998771
0.999051
0.999403
0.999813
1.000264
1.000738
1.001215
1.001675
1.002098
1.002465
1.002759
1.002967
1.003080
1.003099
1.002995
0.998313
0.998216
0.998252
0.998380
0.998603
0.998911
0.999294
0.999737
1.000222
1.000730
1.001242
1.001738
1.002197
1.002599
1.002926
1.003165
1.003302
1.003337
1.003230
0.997933
0.997841
0.997901
0.998063
0.998326
0.998685
0.999119
0.999614
1.000154
1.000719
1.001288
1.001841
1.002357
1.002815
1.003198
1.003483
1.003660
1.003723
1.003622
0.997360
0.997288
0.997390
0.997604
0.997927
0.998350
0.998865
0.999438
1.000057
1.000702
1.001353
1.001987
1.002586
1.003131
1.003587
1.003941
1.004177
1.004290
1.004212
0.996551
0.996520
0.996688
0.996978
0.997386
0.997900
0.998506
0.999198
0.999926
1.000680
1.001440
1.002188
1.002909
1.003555
1.004114
1.004564
1.004888
1.005077
1.005047
0.995449
0.995492
0.995758
0.996156
0.996679
0.997314
0.998045
0.998857
0.999751
1.000650
1.001556
1.002471
1.003323
1.004106
1.004800
1.005381
1.005830
1.006132
1.006188
0.993983
0.994146
0.994556
0.995102
0.995779
0.996572
0.997464
0.998436
0.999477
1.000612
1.001750
1.002823
1.003847
1.004806
1.005675
1.006431
1.007050
1.007519
1.007716
0.992057
0.992410
0.993023
0.993773
0.994653
0.995650
0.996742
0.997915
0.999164
1.000551
1.001966
1.003261
1.004500
1.005677
1.006772
1.007758
1.008612
1.009316
1.009736
0.989550
0.990188
0.991092
0.992117
0.993267
0.994519
0.995862
0.997296
0.998942
1.000489
1.002056
1.003781
1.005303
1.006753
1.008132
1.009420
1.010589
1.011631
1.012389
0.986281
0.987361
0.988669
0.990073
0.991566
0.993147
0.994826
0.996845
0.998639
1.000422
1.002225
1.004085
1.006252
1.008073
1.009814
1.011488
1.013087
1.014597
1.015876
0.982023
0.983751
0.985645
0.987543
0.989491
0.991528
0.994128
0.996252
0.998309
1.000353
1.002422
1.004551
1.006800
1.009645
1.011895
1.014075
1.016234
1.018417
1.020463
0.976383
0.979130
0.981817
0.984399
0.987006
0.990570
0.993185
0.995620
0.997967
1.000288
1.002637
1.005068
1.007644
1.010462
1.014418
1.017336
1.020260
1.023356
1.026599
0.968815
0.973054
0.976906
0.980522
0.985769
0.989172
0.992188
0.994973
0.997628
1.000232
1.002869
1.005622
1.008572
1.011825
1.015547
1.021420
1.025508
1.029926
1.034933
0.958031
0.964793
0.970524
0.978890
0.983666
0.987659
0.991151
0.994322
0.997292
1.000185
1.003118
1.006202
1.009572
1.013352
1.017735
1.023028
1.032454
1.039016
1.046979
0.941326
0.952960
0.967819
0.975344
0.981179
0.985957
0.990036
0.993628
0.996940
1.000135
1.003373
1.006820
1.010650
1.015088
1.020371
1.026897
1.035382
1.052347
1.066155
0.911708
0.946243
0.960944
0.970901
0.978286
0.984126
0.988875
0.992942
0.996593
1.000074
1.003606
1.007412
1.011763
1.016962
1.023484
1.031870
1.043331
1.060538
1.102352
0.998637
0.998554
0.998560
0.998654
0.998833
0.999095
0.999432
0.999833
1.000279
1.000749
1.001220
1.001672
1.002080
1.002427
1.002697
1.002881
1.002975
1.002977
1.002882
0.998732
0.998630
0.998622
0.998711
0.998884
0.999140
0.999470
0.999860
1.000292
1.000749
1.001207
1.001646
1.002045
1.002384
1.002649
1.002829
1.002918
1.002905
1.002793
0.998752
0.998650
0.998633
0.998720
0.998894
0.999151
0.999479
0.999866
1.000295
1.000747
1.001202
1.001638
1.002035
1.002375
1.002642
1.002823
1.002911
1.002891
1.002779
0.998677
0.998568
0.998552
0.998644
0.998827
0.999095
0.999436
0.999836
1.000279
1.000744
1.001212
1.001663
1.002075
1.002430
1.002711
1.002903
1.002999
1.002980
1.002860
0.998483
0.998369
0.998358
0.998468
0.998673
0.998966
0.999336
0.999766
1.000240
1.000737
1.001238
1.001721
1.002166
1.002553
1.002863
1.003082
1.003199
1.003187
1.003062
0.998134
0.998022
0.998027
0.998166
0.998408
0.998748
0.999166
0.999648
1.000175
1.000727
1.001283
1.001821
1.002321
1.002761
1.003122
1.003383
1.003535
1.003542
1.003421
0.997595
0.997500
0.997534
0.997720
0.998017
0.998418
0.998913
0.999471
1.000078
1.000711
1.001348
1.001969
1.002550
1.003072
1.003502
1.003827
1.004034
1.004076
1.003974
0.996821
0.996762
0.996848
0.997103
0.997479
0.997966
0.998551
0.999226
0.999942
1.000688
1.001440
1.002174
1.002875
1.003497
1.004024
1.004439
1.004726
1.004830
1.004772
0.995755
0.995766
0.995932
0.996288
0.996770
0.997373
0.998080
0.998876
0.999759
1.000657
1.001562
1.002464
1.003297
1.004053
1.004711
1.005248
1.005652
1.005849
1.005873
0.994331
0.994454
0.994744
0.995237
0.995867
0.996620
0.997484
0.998441
0.999482
1.000615
1.001752
1.002826
1.003833
1.004762
1.005587
1.006292
1.006856
1.007197
1.007355
0.992450
0.992759
0.993224
0.993913
0.994734
0.995686
0.996745
0.997915
0.999163
1.000550
1.001965
1.003259
1.004500
1.005641
1.006690
1.007612
1.008402
1.008949
1.009326
0.990002
0.990583
0.991312
0.992260
0.993344
0.994542
0.995876
0.997292
0.998931
1.000483
1.002055
1.003776
1.005282
1.006730
1.008051
1.009271
1.010358
1.011213
1.011914
0.986797
0.987817
0.988906
0.990227
0.991637
0.993206
0.994849
0.996848
0.998625
1.000412
1.002222
1.004067
1.006216
1.008002
1.009740
1.011326
1.012839
1.014112
1.015333
0.982639
0.984274
0.985915
0.987705
0.989645
0.991623
0.994183
0.996270
0.998323
1.000344
1.002390
1.004519
1.006731
1.009535
1.011723
1.013907
1.015952
1.017860
1.019813
0.977089
0.979746
0.982103
0.984715
0.987230
0.990733
0.993279
0.995705
0.998007
1.000284
1.002589
1.004974
1.007545
1.010293
1.014177
1.016995
1.019971
1.022699
1.025854
0.969668
0.973734
0.977459
0.980955
0.986109
0.989401
0.992406
0.995118
0.997704
1.000235
1.002799
1.005482
1.008359
1.011606
1.015210
1.020966
1.024923
1.029209
1.034026
0.958823
0.965906
0.971193
0.979469
0.984072
0.988070
0.991456
0.994529
0.997395
1.000188
1.003020
1.006001
1.009275
1.012949
1.017349
1.022460
1.031765
1.037805
1.046188
0.943983
0.954910
0.969150
0.976322
0.982116
0.986677
0.990565
0.993969
0.997108
1.000133
1.003203
1.006480
1.010124
1.014374
1.019440
1.025945
1.034061
1.050253
1.063140
0.914177
0.948177
0.961901
0.972099
0.979254
0.984895
0.989424
0.993296
0.996752
1.000049
1.003397
1.007011
1.011172
1.016154
1.022486
1.030642
1.042444
1.058418
1.099394
0.998686
0.998583
0.998578
0.998661
0.998834
0.999093
0.999430
0.999832
1.000281
1.000755
1.001231
1.001686
1.002096
1.002442
1.002708
1.002886
1.002969
1.002958
1.002842
0.998808
0.998683
0.998661
0.998733
0.998900
0.999150
0.999477
0.999866
1.000298
1.000755
1.001214
1.001653
1.002050
1.002386
1.002645
1.002816
1.002889
1.002862
1.002725
0.998851
0.998723
0.998690
0.998755
0.998920
0.999170
0.999493
0.999877
1.000304
1.000754
1.001206
1.001639
1.002033
1.002367
1.002626
1.002797
1.002864
1.002827
1.002688
0.998803
0.998666
0.998634
0.998701
0.998872
0.999130
0.999463
0.999856
1.000291
1.000751
1.001212
1.001655
1.002059
1.002405
1.002675
1.002854
1.002924
1.002889
1.002741
0.998634
0.998489
0.998460
0.998539
0.998730
0.999010
0.999369
0.999790
1.000255
1.000744
1.001236
1.001710
1.002145
1.002519
1.002815
1.003018
1.003103
1.003073
1.002916
0.998311
0.998164
0.998148
0.998250
0.998475
0.998799
0.999203
0.999674
1.000192
1.000734
1.001280
1.001808
1.002295
1.002720
1.003064
1.003306
1.003420
1.003405
1.003248
0.997798
0.997661
0.997672
0.997815
0.998091
0.998472
0.998952
0.999497
1.000093
1.000718
1.001346
1.001956
1.002521
1.003026
1.003436
1.003739
1.003900
1.003918
1.003774
0.997048
0.996944
0.997003
0.997206
0.997557
0.998022
0.998589
0.999250
0.999954
1.000694
1.001440
1.002161
1.002847
1.003448
1.003953
1.004342
1.004575
1.004651
1.004545
0.996008
0.995967
0.996103
0.996396
0.996850
0.997428
0.998116
0.998895
0.999771
1.000660
1.001557
1.002453
1.003269
1.004004
1.004636
1.005144
1.005482
1.005650
1.005620
0.994608
0.994675
0.994930
0.995350
0.995946
0.996671
0.997514
0.998463
0.999493
1.000615
1.001742
1.002806
1.003807
1.004714
1.005511
1.006181
1.006669
1.006977
1.007077
0.992755
0.993000
0.993429
0.994030
0.994814
0.995732
0.996782
0.997938
0.999173
1.000546
1.001948
1.003230
1.004458
1.005595
1.006610
1.007496
1.008194
1.008708
1.009020
0.990332
0.990849
0.991536
0.992385
0.993423
0.994611
0.995919
0.997316
0.998939
1.000476
1.002033
1.003738
1.005226
1.006650
1.007969
1.009144
1.010129
1.010945
1.011583
0.987166
0.988109
0.989161
0.990358
0.991767
0.993298
0.994909
0.996874
0.998628
1.000402
1.002199
1.004022
1.006137
1.007895
1.009597
1.011194
1.012577
1.013819
1.014964
0.983033
0.984606
0.986193
0.987925
0.989819
0.991752
0.994260
0.996308
0.998327
1.000334
1.002368
1.004463
1.006638
1.009387
1.011533
1.013672
1.015667
1.017526
1.019422
0.977534
0.980103
0.982552
0.985008
0.987471
0.990897
0.993386
0.995757
0.998038
1.000276
1.002542
1.004911
1.007428
1.010119
1.013918
1.016687
1.019494
1.022349
1.025415
0.970049
0.974328
0.978013
0.981335
0.986394
0.989607
0.992533
0.995223
0.997752
1.000229
1.002739
1.005367
1.008228
1.011397
1.014924
1.020573
1.024339
1.028592
1.033697
0.960158
0.966999
0.972151
0.980086
0.984551
0.988400
0.991741
0.994713
0.997485
1.000185
1.002924
1.005815
1.008991
1.012632
1.016885
1.021862
1.030768
1.036664
1.044732
0.945222
0.956053
0.970025
0.976891
0.982534
0.987094
0.990872
0.994173
0.997205
1.000126
1.003094
1.006267
1.009816
1.013964
1.019051
1.025418
1.033190
1.049048
1.061785
0.915310
0.949156
0.962693
0.972479
0.979805
0.985343
0.989771
0.993519
0.996858
1.000033
1.003260
1.006761
1.010804
1.015697
1.021935
1.030334
1.041638
1.057405
1.098076
0.998726
0.998601
0.998583
0.998658
0.998824
0.999082
0.999420
0.999827
1.000281
1.000762
1.001245
1.001704
1.002118
1.002465
1.002729
1.002900
1.002974
1.002950
1.002811
0.998874
0.998723
0.998686
0.998749
0.998905
0.999153
0.999478
0.999867
1.000302
1.000761
1.001223
1.001663
1.002061
1.002395
1.002650
1.002811
1.002874
1.002830
1.002668
0.998939
0.998784
0.998732
0.998787
0.998939
0.999183
0.999502
0.999884
1.000310
1.000760
1.001212
1.001644
1.002035
1.002365
1.002618
1.002775
1.002831
1.002774
1.002608
0.998912
0.998744
0.998692
0.998745
0.998900
0.999150
0.999478
0.999867
1.000300
1.000756
1.001216
1.001656
1.002056
1.002395
1.002657
1.002820
1.002876
1.002819
1.002640
0.998765
0.998586
0.998535
0.998600
0.998770
0.999041
0.999391
0.999806
1.000266
1.000750
1.001237
1.001705
1.002133
1.002499
1.002784
1.002966
1.003037
1.002983
1.002792
0.998464
0.998278
0.998236
0.998323
0.998523
0.998835
0.999229
0.999691
1.000202
1.000739
1.001280
1.001801
1.002280
1.002693
1.003024
1.003243
1.003340
1.003300
1.003101
0.997971
0.997791
0.997773
0.997898
0.998146
0.998513
0.998981
0.999515
1.000103
1.000722
1.001346
1.001947
1.002502
1.002994
1.003390
1.003664
1.003808
1.003797
1.003608
0.997240
0.997087
0.997114
0.997298
0.997617
0.998066
0.998619
0.999268
0.999966
1.000697
1.001435
1.002150
1.002824
1.003412
1.003901
1.004258
1.004472
1.004516
1.004359
0.996216
0.996123
0.996224
0.996497
0.996914
0.997475
0.998147
0.998919
0.999784
1.000661
1.001547
1.002433
1.003243
1.003963
1.004579
1.005050
1.005370
1.005501
1.005418
0.994833
0.994843
0.995062
0.995460
0.996015
0.996721
0.997556
0.998492
0.999507
1.000614
1.001725
1.002775
1.003764
1.004667
1.005447
1.006077
1.006544
1.006817
1.006858
0.992993
0.993181
0.993571
0.994152
0.994887
0.995801
0.996834
0.997974
0.999189
1.000541
1.001924
1.003186
1.004399
1.005523
1.006539
1.007377
1.008059
1.008535
1.008790
0.990586
0.991042
0.991695
0.992520
0.993531
0.994698
0.995985
0.997358
0.998958
1.000469
1.002000
1.003682
1.005148
1.006553
1.007855
1.009010
1.009976
1.010762
1.011339
0.987426
0.988322
0.989334
0.990557
0.991908
0.993413
0.994987
0.996921
0.998647
1.000394
1.002163
1.003958
1.006042
1.007764
1.009445
1.010985
1.012411
1.013618
1.014718
0.983310
0.984829
0.986465
0.988184
0.990007
0.991891
0.994356
0.996358
0.998342
1.000325
1.002334
1.004396
1.006525
1.009231
1.011329
1.013397
1.015388
1.017320
1.019165
0.977766
0.980460
0.982897
0.985341
0.987690
0.991064
0.993488
0.995811
0.998050
1.000266
1.002512
1.004839
1.007311
1.009938
1.013686
1.016334
1.019138
1.021992
1.025233
0.970784
0.974972
0.978601
0.981823
0.986729
0.989838
0.992684
0.995302
0.997795
1.000220
1.002679
1.005277
1.008070
1.011164
1.014588
1.020070
1.023732
1.027930
1.032919
0.960867
0.967699
0.972731
0.980585
0.984851
0.988619
0.991876
0.994821
0.997534
1.000177
1.002862
1.005697
1.008856
1.012420
1.016602
1.021362
1.030185
1.035942
1.043989
0.945871
0.956691
0.970618
0.977326
0.982801
0.987280
0.991057
0.994294
0.997262
1.000119
1.003022
1.006137
1.009629
1.013792
1.018814
1.025003
1.032607
1.048405
1.061101
0.915772
0.949684
0.963141
0.972836
0.979964
0.985602
0.989973
0.993661
0.996923
1.000023
1.003176
1.006605
1.010596
1.015442
1.021824
1.029995
1.041217
1.056892
1.097581
0.998756
0.998611
0.998581
0.998647
0.998809
0.999064
0.999406
0.999817
1.000279
1.000768
1.001259
1.001726
1.002144
1.002493
1.002755
1.002921
1.002986
1.002949
1.002789
0.998926
0.998753
0.998701
0.998754
0.998905
0.999147
0.999473
0.999864
1.000303
1.000767
1.001233
1.001677
1.002076
1.002410
1.002661
1.002816
1.002869
1.002810
1.002624
0.999011
0.998831
0.998763
0.998806
0.998951
0.999187
0.999505
0.999887
1.000314
1.000765
1.001218
1.001651
1.002042
1.002370
1.002616
1.002766
1.002810
1.002736
1.002543
0.999003
0.998808
0.998735
0.998776
0.998922
0.999163
0.999486
0.999873
1.000305
1.000761
1.001220
1.001659
1.002057
1.002392
1.002645
1.002799
1.002842
1.002765
1.002556
0.998875
0.998663
0.998589
0.998639
0.998800
0.999058
0.999403
0.999814
1.000272
1.000754
1.001240
1.001706
1.002130
1.002491
1.002764
1.002938
1.002993
1.002916
1.002690
0.998590
0.998367
0.998301
0.998371
0.998561
0.998859
0.999245
0.999702
1.000208
1.000743
1.001282
1.001799
1.002272
1.002679
1.002997
1.003204
1.003285
1.003219
1.002983
0.998113
0.997892
0.997847
0.997953
0.998190
0.998541
0.999000
0.999527
1.000111
1.000725
1.001344
1.001942
1.002491
1.002975
1.003355
1.003619
1.003745
1.003706
1.003474
0.997396
0.997198
0.997196
0.997361
0.997668
0.998099
0.998642
0.999285
0.999975
1.000699
1.001429
1.002138
1.002808
1.003387
1.003859
1.004206
1.004401
1.004415
1.004212
0.996385
0.996243
0.996314
0.996566
0.996973
0.997513
0.998180
0.998941
0.999795
1.000661
1.001535
1.002411
1.003213
1.003931
1.004528
1.004991
1.005291
1.005393
1.005258
0.995011
0.994972
0.995159
0.995538
0.996082
0.996775
0.997599
0.998522
0.999521
1.000611
1.001706
1.002741
1.003720
1.004614
1.005386
1.006008
1.006459
1.006701
1.006691
0.993180
0.993318
0.993680
0.994241
0.994981
0.995872
0.996892
0.998013
0.999207
1.000537
1.001897
1.003140
1.004335
1.005449
1.006445
1.007297
1.007962
1.008412
1.008615
0.990776
0.991190
0.991813
0.992649
0.993653
0.994791
0.996057
0.997406
0.998979
1.000463
1.001967
1.003622
1.005065
1.006451
1.007728
1.008882
1.009870
1.010629
1.011164
0.987624
0.988476
0.989512
0.990726
0.992068
0.993526
0.995073
0.996976
0.998672
1.000386
1.002124
1.003888
1.005942
1.007638
1.009273
1.010812
1.012235
1.013481
1.014540
0.983481
0.985061
0.986692
0.988404
0.990199
0.992026
0.994450
0.996414
0.998365
1.000316
1.002294
1.004323
1.006415
1.009080
1.011123
1.013167
1.015160
1.017095
1.019031
0.978209
0.980857
0.983269
0.985658
0.987960
0.991241
0.993610
0.995877
0.998073
1.000257
1.002472
1.004759
1.007176
1.009750
1.013400
1.016007
1.018757
1.021590
1.024775
0.971225
0.975415
0.978986
0.982162
0.986999
0.990012
0.992791
0.995359
0.997809
1.000211
1.002649
1.005207
1.007955
1.010985
1.014310
1.019724
1.023346
1.027478
1.032469
0.961294
0.968125
0.973141
0.980916
0.985120
0.988767
0.991972
0.994866
0.997561
1.000169
1.002819
1.005643
1.008756
1.012278
1.016335
1.021040
1.029776
1.035516
1.043554
0.946210
0.957070
0.970982
0.977645
0.983022
0.987403
0.991131
0.994364
0.997293
1.000111
1.002978
1.006059
1.009556
1.013684
1.018608
1.024700
1.032265
1.048041
1.060766
0.915998
0.949973
0.963429
0.973066
0.980139
0.985669
0.990091
0.993742
0.996965
1.000018
1.003125
1.006518
1.010479
1.015401
1.021664
1.029792
1.040961
1.056641
1.097366
0.998778
0.998616
0.998574
0.998633
0.998791
0.999046
0.999390
0.999806
1.000276
1.000773
1.001272
1.001746
1.002169
1.002520
1.002782
1.002944
1.003001
1.002951
1.002775
0.998966
0.998773
0.998709
0.998753
0.998899
0.999139
0.999465
0.999859
1.000302
1.000771
1.001243
1.001691
1.002093
1.002427
1.002675
1.002825
1.002869
1.002797
1.002592
0.999066
0.998866
0.998783
0.998816
0.998955
0.999188
0.999503
0.999886
1.000315
1.000769
1.001226