# vtk DataFile Version 2.0
generated by CFD-lab course output 
ASCII

DATASET UNSTRUCTURED_GRID
POINTS 6859 float

0.050000 0.050000 0.050000
0.100000 0.050000 0.050000
0.150000 0.050000 0.050000
0.200000 0.050000 0.050000
0.250000 0.050000 0.050000
0.300000 0.050000 0.050000
0.350000 0.050000 0.050000
0.400000 0.050000 0.050000
0.450000 0.050000 0.050000
0.500000 0.050000 0.050000
0.550000 0.050000 0.050000
0.600000 0.050000 0.050000
0.650000 0.050000 0.050000
0.700000 0.050000 0.050000
0.750000 0.050000 0.050000
0.800000 0.050000 0.050000
0.850000 0.050000 0.050000
0.900000 0.050000 0.050000
0.950000 0.050000 0.050000
0.050000 0.100000 0.050000
0.100000 0.100000 0.050000
0.150000 0.100000 0.050000
0.200000 0.100000 0.050000
0.250000 0.100000 0.050000
0.300000 0.100000 0.050000
0.350000 0.100000 0.050000
0.400000 0.100000 0.050000
0.450000 0.100000 0.050000
0.500000 0.100000 0.050000
0.550000 0.100000 0.050000
0.600000 0.100000 0.050000
0.650000 0.100000 0.050000
0.700000 0.100000 0.050000
0.750000 0.100000 0.050000
0.800000 0.100000 0.050000
0.850000 0.100000 0.050000
0.900000 0.100000 0.050000
0.950000 0.100000 0.050000
0.050000 0.150000 0.050000
0.100000 0.150000 0.050000
0.150000 0.150000 0.050000
0.200000 0.150000 0.050000
0.250000 0.150000 0.050000
0.300000 0.150000 0.050000
0.350000 0.150000 0.050000
0.400000 0.150000 0.050000
0.450000 0.150000 0.050000
0.500000 0.150000 0.050000
0.550000 0.150000 0.050000
0.600000 0.150000 0.050000
0.650000 0.150000 0.050000
0.700000 0.150000 0.050000
0.750000 0.150000 0.050000
0.800000 0.150000 0.050000
0.850000 0.150000 0.050000
0.900000 0.150000 0.050000
0.950000 0.150000 0.050000
0.050000 0.200000 0.050000
0.100000 0.200000 0.050000
0.150000 0.200000 0.050000
0.200000 0.200000 0.050000
0.250000 0.200000 0.050000
0.300000 0.200000 0.050000
0.350000 0.200000 0.050000
0.400000 0.200000 0.050000
0.450000 0.200000 0.050000
0.500000 0.200000 0.050000
0.550000 0.200000 0.050000
0.600000 0.200000 0.050000
0.650000 0.200000 0.050000
0.700000 0.200000 0.050000
0.750000 0.200000 0.050000
0.800000 0.200000 0.050000
0.850000 0.200000 0.050000
0.900000 0.200000 0.050000
0.950000 0.200000 0.050000
0.050000 0.250000 0.050000
0.100000 0.250000 0.050000
0.150000 0.250000 0.050000
0.200000 0.250000 0.050000
0.250000 0.250000 0.050000
0.300000 0.250000 0.050000
0.350000 0.250000 0.050000
0.400000 0.250000 0.050000
0.450000 0.250000 0.050000
0.500000 0.250000 0.050000
0.550000 0.250000 0.050000
0.600000 0.250000 0.050000
0.650000 0.250000 0.050000
0.700000 0.250000 0.050000
0.750000 0.250000 0.050000
0.800000 0.250000 0.050000
0.850000 0.250000 0.050000
0.900000 0.250000 0.050000
0.950000 0.250000 0.050000
0.050000 0.300000 0.050000
0.100000 0.300000 0.050000
0.150000 0.300000 0.050000
0.200000 0.300000 0.050000
0.250000 0.300000 0.050000
0.300000 0.300000 0.050000
0.350000 0.300000 0.050000
0.400000 0.300000 0.050000
0.450000 0.300000 0.050000
0.500000 0.300000 0.050000
0.550000 0.300000 0.050000
0.600000 0.300000 0.050000
0.650000 0.300000 0.050000
0.700000 0.300000 0.050000
0.750000 0.300000 0.050000
0.800000 0.300000 0.050000
0.850000 0.300000 0.050000
0.900000 0.300000 0.050000
0.950000 0.300000 0.050000
0.050000 0.350000 0.050000
0.100000 0.350000 0.050000
0.150000 0.350000 0.050000
0.200000 0.350000 0.050000
0.250000 0.350000 0.050000
0.300000 0.350000 0.050000
0.350000 0.350000 0.050000
0.400000 0.350000 0.050000
0.450000 0.350000 0.050000
0.500000 0.350000 0.050000
0.550000 0.350000 0.050000
0.600000 0.350000 0.050000
0.650000 0.350000 0.050000
0.700000 0.350000 0.050000
0.750000 0.350000 0.050000
0.800000 0.350000 0.050000
0.850000 0.350000 0.050000
0.900000 0.350000 0.050000
0.950000 0.350000 0.050000
0.050000 0.400000 0.050000
0.100000 0.400000 0.050000
0.150000 0.400000 0.050000
0.200000 0.400000 0.050000
0.250000 0.400000 0.050000
0.300000 0.400000 0.050000
0.350000 0.400000 0.050000
0.400000 0.400000 0.050000
0.450000 0.400000 0.050000
0.500000 0.400000 0.050000
0.550000 0.400000 0.050000
0.600000 0.400000 0.050000
0.650000 0.400000 0.050000
0.700000 0.400000 0.050000
0.750000 0.400000 0.050000
0.800000 0.400000 0.050000
0.850000 0.400000 0.050000
0.900000 0.400000 0.050000
0.950000 0.400000 0.050000
0.050000 0.450000 0.050000
0.100000 0.450000 0.050000
0.150000 0.450000 0.050000
0.200000 0.450000 0.050000
0.250000 0.450000 0.050000
0.300000 0.450000 0.050000
0.350000 0.450000 0.050000
0.400000 0.450000 0.050000
0.450000 0.450000 0.050000
0.500000 0.450000 0.050000
0.550000 0.450000 0.050000
0.600000 0.450000 0.050000
0.650000 0.450000 0.050000
0.700000 0.450000 0.050000
0.750000 0.450000 0.050000
0.800000 0.450000 0.050000
0.850000 0.450000 0.050000
0.900000 0.450000 0.050000
0.950000 0.450000 0.050000
0.050000 0.500000 0.050000
0.100000 0.500000 0.050000
0.150000 0.500000 0.050000
0.200000 0.500000 0.050000
0.250000 0.500000 0.050000
0.300000 0.500000 0.050000
0.350000 0.500000 0.050000
0.400000 0.500000 0.050000
0.450000 0.500000 0.050000
0.500000 0.500000 0.050000
0.550000 0.500000 0.050000
0.600000 0.500000 0.050000
0.650000 0.500000 0.050000
0.700000 0.500000 0.050000
0.750000 0.500000 0.050000
0.800000 0.500000 0.050000
0.850000 0.500000 0.050000
0.900000 0.500000 0.050000
0.950000 0.500000 0.050000
0.050000 0.550000 0.050000
0.100000 0.550000 0.050000
0.150000 0.550000 0.050000
0.200000 0.550000 0.050000
0.250000 0.550000 0.050000
0.300000 0.550000 0.050000
0.350000 0.550000 0.050000
0.400000 0.550000 0.050000
0.450000 0.550000 0.050000
0.500000 0.550000 0.050000
0.550000 0.550000 0.050000
0.600000 0.550000 0.050000
0.650000 0.550000 0.050000
0.700000 0.550000 0.050000
0.750000 0.550000 0.050000
0.800000 0.550000 0.050000
0.850000 0.550000 0.050000
0.900000 0.550000 0.050000
0.950000 0.550000 0.050000
0.050000 0.600000 0.050000
0.100000 0.600000 0.050000
0.150000 0.600000 0.050000
0.200000 0.600000 0.050000
0.250000 0.600000 0.050000
0.300000 0.600000 0.050000
0.350000 0.600000 0.050000
0.400000 0.600000 0.050000
0.450000 0.600000 0.050000
0.500000 0.600000 0.050000
0.550000 0.600000 0.050000
0.600000 0.600000 0.050000
0.650000 0.600000 0.050000
0.700000 0.600000 0.050000
0.750000 0.600000 0.050000
0.800000 0.600000 0.050000
0.850000 0.600000 0.050000
0.900000 0.600000 0.050000
0.950000 0.600000 0.050000
0.050000 0.650000 0.050000
0.100000 0.650000 0.050000
0.150000 0.650000 0.050000
0.200000 0.650000 0.050000
0.250000 0.650000 0.050000
0.300000 0.650000 0.050000
0.350000 0.650000 0.050000
0.400000 0.650000 0.050000
0.450000 0.650000 0.050000
0.500000 0.650000 0.050000
0.550000 0.650000 0.050000
0.600000 0.650000 0.050000
0.650000 0.650000 0.050000
0.700000 0.650000 0.050000
0.750000 0.650000 0.050000
0.800000 0.650000 0.050000
0.850000 0.650000 0.050000
0.900000 0.650000 0.050000
0.950000 0.650000 0.050000
0.050000 0.700000 0.050000
0.100000 0.700000 0.050000
0.150000 0.700000 0.050000
0.200000 0.700000 0.050000
0.250000 0.700000 0.050000
0.300000 0.700000 0.050000
0.350000 0.700000 0.050000
0.400000 0.700000 0.050000
0.450000 0.700000 0.050000
0.500000 0.700000 0.050000
0.550000 0.700000 0.050000
0.600000 0.700000 0.050000
0.650000 0.700000 0.050000
0.700000 0.700000 0.050000
0.750000 0.700000 0.050000
0.800000 0.700000 0.050000
0.850000 0.700000 0.050000
0.900000 0.700000 0.050000
0.950000 0.700000 0.050000
0.050000 0.750000 0.050000
0.100000 0.750000 0.050000
0.150000 0.750000 0.050000
0.200000 0.750000 0.050000
0.250000 0.750000 0.050000
0.300000 0.750000 0.050000
0.350000 0.750000 0.050000
0.400000 0.750000 0.050000
0.450000 0.750000 0.050000
0.500000 0.750000 0.050000
0.550000 0.750000 0.050000
0.600000 0.750000 0.050000
0.650000 0.750000 0.050000
0.700000 0.750000 0.050000
0.750000 0.750000 0.050000
0.800000 0.750000 0.050000
0.850000 0.750000 0.050000
0.900000 0.750000 0.050000
0.950000 0.750000 0.050000
0.050000 0.800000 0.050000
0.100000 0.800000 0.050000
0.150000 0.800000 0.050000
0.200000 0.800000 0.050000
0.250000 0.800000 0.050000
0.300000 0.800000 0.050000
0.350000 0.800000 0.050000
0.400000 0.800000 0.050000
0.450000 0.800000 0.050000
0.500000 0.800000 0.050000
0.550000 0.800000 0.050000
0.600000 0.800000 0.050000
0.650000 0.800000 0.050000
0.700000 0.800000 0.050000
0.750000 0.800000 0.050000
0.800000 0.800000 0.050000
0.850000 0.800000 0.050000
0.900000 0.800000 0.050000
0.950000 0.800000 0.050000
0.050000 0.850000 0.050000
0.100000 0.850000 0.050000
0.150000 0.850000 0.050000
0.200000 0.850000 0.050000
0.250000 0.850000 0.050000
0.300000 0.850000 0.050000
0.350000 0.850000 0.050000
0.400000 0.850000 0.050000
0.450000 0.850000 0.050000
0.500000 0.850000 0.050000
0.550000 0.850000 0.050000
0.600000 0.850000 0.050000
0.650000 0.850000 0.050000
0.700000 0.850000 0.050000
0.750000 0.850000 0.050000
0.800000 0.850000 0.050000
0.850000 0.850000 0.050000
0.900000 0.850000 0.050000
0.950000 0.850000 0.050000
0.050000 0.900000 0.050000
0.100000 0.900000 0.050000
0.150000 0.900000 0.050000
0.200000 0.900000 0.050000
0.250000 0.900000 0.050000
0.300000 0.900000 0.050000
0.350000 0.900000 0.050000
0.400000 0.900000 0.050000
0.450000 0.900000 0.050000
0.500000 0.900000 0.050000
0.550000 0.900000 0.050000
0.600000 0.900000 0.050000
0.650000 0.900000 0.050000
0.700000 0.900000 0.050000
0.750000 0.900000 0.050000
0.800000 0.900000 0.050000
0.850000 0.900000 0.050000
0.900000 0.900000 0.050000
0.950000 0.900000 0.050000
0.050000 0.950000 0.050000
0.100000 0.950000 0.050000
0.150000 0.950000 0.050000
0.200000 0.950000 0.050000
0.250000 0.950000 0.050000
0.300000 0.950000 0.050000
0.350000 0.950000 0.050000
0.400000 0.950000 0.050000
0.450000 0.950000 0.050000
0.500000 0.950000 0.050000
0.550000 0.950000 0.050000
0.600000 0.950000 0.050000
0.650000 0.950000 0.050000
0.700000 0.950000 0.050000
0.750000 0.950000 0.050000
0.800000 0.950000 0.050000
0.850000 0.950000 0.050000
0.900000 0.950000 0.050000
0.950000 0.950000 0.050000
0.050000 0.050000 0.100000
0.100000 0.050000 0.100000
0.150000 0.050000 0.100000
0.200000 0.050000 0.100000
0.250000 0.050000 0.100000
[...]
POINT_DATA 6859 
SCALARS density float 1 
LOOKUP_TABLE default 
0.998328
0.998222
0.998214
0.998295
0.998464
0.998718
0.999046
0.999435
0.999867
1.000322
1.000779
1.001217
1.001614
1.001951
1.002214
1.002390
1.002473
1.002463
1.002348
0.998271
0.998176
0.998165
0.998249
0.998425
0.998687
0.999023
0.999420
0.999860
1.000323
1.000788
1.001234
1.001640
1.001987
1.002259
1.002443
1.002530
1.002516
1.002412
0.998162
0.998072
0.998075
0.998167
0.998356
0.998631
0.998981
0.999391
0.999844
1.000320
1.000799
1.001260
1.001681
1.002044
1.002332
1.002529
1.002626
1.002626
1.002527
0.997970
0.997885
0.997900
0.998016
0.998224
0.998523
0.998898
0.999334
0.999813
1.000315
1.000821
1.001309
1.001758
1.002149
1.002463
1.002684
1.002807
1.002820
1.002726
0.997662
0.997590
0.997625
0.997768
0.998015
0.998350
0.998764
0.999241
0.999761
1.000306
1.000854
1.001386
1.001879
1.002313
1.002669
1.002933
1.003086
1.003122
1.003041
0.997204
0.997156
0.997224
0.997410
0.997705
0.998100
0.998571
0.999106
0.999686
1.000292
1.000903
1.001497
1.002053
1.002550
1.002972
1.003290
1.003492
1.003566
1.003511
0.996556
0.996550
0.996669
0.996918
0.997282
0.997749
0.998308
0.998923
0.999585
1.000273
1.000967
1.001646
1.002288
1.002879
1.003381
1.003778
1.004052
1.004184
1.004175
0.995674
0.995734
0.995932
0.996268
0.996728
0.997294
0.997948
0.998686
0.999453
1.000249
1.001052
1.001841
1.002609
1.003306
1.003919
1.004423
1.004796
1.005017
1.005084
0.994495
0.994662
0.994970
0.995428
0.996014
0.996711
0.997496
0.998354
0.999287
1.000218
1.001158
1.002113
1.003012
1.003851
1.004609
1.005255
1.005768
1.006116
1.006305
0.992950
0.993273
0.993742
0.994363
0.995118
0.995980
0.996933
0.997954
0.999028
1.000182
1.001338
1.002445
1.003517
1.004538
1.005479
1.006315
1.007013
1.007546
1.007916
0.990930
0.991492
0.992182
0.993028
0.993997
0.995076
0.996233
0.997457
0.998724
1.000124
1.001552
1.002859
1.004148
1.005389
1.006568
1.007646
1.008602
1.009388
1.010038
0.988319
0.989221
0.990229
0.991367
0.992625
0.993965
0.995380
0.996836
0.998511
1.000067
1.001639
1.003390
1.004923
1.006445
1.007913
1.009314
1.010602
1.011755
1.012804
0.984908
0.986337
0.987770
0.989318
0.990929
0.992614
0.994316
0.996382
0.998188
1.000001
1.001834
1.003699
1.005909
1.007740
1.009588
1.011385
1.013138
1.014780
1.016449
0.980492
0.982650
0.984713
0.986772
0.988866
0.990925
0.993595
0.995732
0.997837
0.999931
1.002047
1.004224
1.006478
1.009396
1.011652
1.013988
1.016319
1.018685
1.021215
0.974606
0.977941
0.980816
0.983612
0.986227
0.989905
0.992529
0.995038
0.997458
0.999857
1.002283
1.004788
1.007440
1.010261
1.014346
1.017256
1.020419
1.023716
1.027636
0.966800
0.971738
0.975865
0.979458
0.984887
0.988293
0.991418
0.994308
0.997074
0.999788
1.002535
1.005402
1.008461
1.011830
1.015550
1.021650
1.025697
1.030427
1.036253
0.955623
0.963397
0.968969
0.977667
0.982424
0.986590
0.990235
0.993567
0.996686
0.999731
1.002815
1.006052
1.009586
1.013524
1.018093
1.023360
1.033220
1.039588
1.048791
0.938917
0.950775
0.966181
0.973616
0.979702
0.984703
0.989007
0.992803
0.996312
0.999696
1.003123
1.006767
1.010798
1.015463
1.020971
1.027763
1.036136
1.053830
1.067975
0.904953
0.942974
0.957552
0.968154
0.976028
0.982350
0.987489
0.991915
0.995883
0.999668
1.003503
1.007624
1.012335
1.017924
1.024945
1.033842
1.046031
1.063061
1.109735
0.998295
0.998174
0.998154
0.998230
0.998399
0.998659
0.998997
0.999401
0.999851
1.000326
1.000802
1.001257
1.001669
1.002018
1.002286
1.002462
1.002540
1.002517
1.002387
0.998293
0.998183
0.998163
0.998241
0.998413
0.998673
0.999011
0.999412
0.999857
1.000326
1.000797
1.001248
1.001657
1.002005
1.002275
1.002454
1.002534
1.002511
1.002393
0.998220
0.998110
0.998101
0.998184
0.998365
0.998635
0.998983
0.999393
0.999846
1.000324
1.000804
1.001265
1.001685
1.002045
1.002326
1.002515
1.002601
1.002589
1.002470
0.998067
0.997953
0.997956
0.998059
0.998256
0.998546
0.998914
0.999345
0.999821
1.000320
1.000822
1.001305
1.001748
1.002131
1.002434
1.002642
1.002750
1.002750
1.002627
0.997802
0.997688
0.997708
0.997834
0.998066
0.998389
0.998793
0.999260
0.999773
1.000311
1.000853
1.001376
1.001859
1.002280
1.002620
1.002866
1.003001
1.003021
1.002897
0.997390
0.997284
0.997332
0.997496
0.997771
0.998149
0.998607
0.999131
0.999702
1.000299
1.000901
1.001484
1.002026
1.002507
1.002908
1.003203
1.003380
1.003431
1.003317
0.996793
0.996708
0.996801
0.997019
0.997357
0.997802
0.998345
0.998949
0.999602
1.000281
1.000966
1.001634
1.002261
1.002832
1.003308
1.003674
1.003914
1.004016
1.003926
0.995967
0.995926
0.996086
0.996382
0.996806
0.997345
0.997981
0.998706
0.999469
1.000259
1.001055
1.001836
1.002588
1.003261
1.003841
1.004305
1.004633
1.004813
1.004773
0.994853
0.994887
0.995147
0.995552
0.996092
0.996753
0.997515
0.998361
0.999292
1.000228
1.001171
1.002120
1.003004
1.003815
1.004531
1.005126
1.005580
1.005874
1.005921
0.993383
0.993538
0.993942
0.994496
0.995192
0.996010
0.996933
0.997940
0.999018
1.000189
1.001364
1.002472
1.003527
1.004513
1.005404
1.006174
1.006799
1.007259
1.007448
0.991457
0.991802
0.992409
0.993168
0.994067
0.995088
0.996211
0.997418
0.998704
1.000127
1.001578
1.002907
1.004177
1.005381
1.006498
1.007497
1.008356
1.009053
1.009463
0.988958
0.989589
0.990488
0.991521
0.992687
0.993964
0.995336
0.996803
0.998483
1.000065
1.001666
1.003423
1.004974
1.006450
1.007849
1.009150
1.010322
1.011355
1.012103
0.985702
0.986773
0.988075
0.989485
0.990994
0.992597
0.994304
0.996353
0.998180
0.999996
1.001833
1.003723
1.005917
1.007762
1.009521
1.011206
1.012807
1.014307
1.015574
0.981465
0.983184
0.985069
0.986973
0.988934
0.990991
0.993614
0.995767
0.997853
0.999928
1.002026
1.004183
1.006456
1.009321
1.011586
1.013774
1.015933
1.018103
1.020136
0.975850
0.978585
0.981263
0.983847
0.986465
0.990044
0.992679
0.995139
0.997512
0.999861
1.002236
1.004692
1.007290
1.010126
1.014092
1.017015
1.019937
1.023017
1.026243
0.968317
0.972542
0.976382
0.979998
0.985249
0.988663
0.991695
0.994500
0.997177
0.999804
1.002463
1.005238
1.008206
1.011471
1.015201
1.021070
1.025152
1.029551
1.034537
0.957574
0.964319
0.970034
0.978390
0.983165
0.987166
0.990670
0.993856
0.996843
0.999756
1.002706
1.005807
1.009190
1.012979
1.017365
1.022652
1.032060
1.038599
1.046536
0.940923
0.952535
0.967366
0.974876
0.980706
0.985486
0.989571
0.993174
0.996497
0.999704
1.002954
1.006412
1.010249
1.014689
1.019969
1.026485
1.034947
1.051871
1.065646
0.911364
0.945853
0.960522
0.970461
0.977837
0.983675
0.988426
0.992498
0.996155
0.999643
1.003181
1.006992
1.011344
1.016540
1.023054
1.031423
1.042856
1.060016
1.101759
0.998288
0.998152
0.998128
0.998200
0.998369
0.998631
0.998975
0.999386
0.999846
1.000331
1.000817
1.001282
1.001701
1.002054
1.002324
1.002499
1.002573
1.002545
1.002401
0.998311
0.998184
0.998152
0.998225
0.998394
0.998655
0.998996
0.999402
0.999854
1.000331
1.000809
1.001267
1.001681
1.002032
1.002301
1.002477
1.002551
1.002516
1.002381
0.998275
0.998155
0.998131
0.998207
0.998382
0.998647
0.998992
0.999400
0.999852
1.000329
1.000808
1.001267
1.001684
1.002039
1.002315
1.002496
1.002575
1.002547
1.002418
0.998151
0.998028
0.998010
0.998102
0.998290
0.998573
0.998934
0.999360
0.999831
1.000325
1.000823
1.001301
1.001737
1.002111
1.002405
1.002603
1.002699
1.002677
1.002545
0.997917
0.997793
0.997784
0.997897
0.998116
0.998428
0.998823
0.999282
0.999787
1.000318
1.000852
1.001366
1.001838
1.002248
1.002575
1.002806
1.002926
1.002916
1.002782
0.997538
0.997419
0.997427
0.997575
0.997833
0.998197
0.998643
0.999157
0.999719
1.000307
1.000899
1.001471
1.002001
1.002466
1.002849
1.003126
1.003284
1.003295
1.003167
0.996974
0.996874
0.996915
0.997111
0.997428
0.997855
0.998382
0.998975
0.999619
1.000290
1.000965
1.001622
1.002235
1.002786
1.003241
1.003583
1.003798
1.003846
1.003740
0.996184
0.996122
0.996216
0.996483
0.996880
0.997396
0.998014
0.998727
0.999481
1.000267
1.001058
1.001829
1.002565
1.003217
1.003769
1.004203
1.004499
1.004610
1.004549
0.995107
0.995116
0.995292
0.995661
0.996165
0.996798
0.997540
0.998373
0.999297
1.000234
1.001180
1.002120
1.002989
1.003775
1.004459
1.005016
1.005430
1.005634
1.005657
0.993680
0.993803
0.994102
0.994609
0.995262
0.996044
0.996943
0.997938
0.999019
1.000193
1.001369
1.002482
1.003523
1.004483
1.005334
1.006058
1.006631
1.006981
1.007137
0.991801
0.992109
0.992583
0.993287
0.994130
0.995112
0.996204
0.997412
0.998700
1.000126
1.001581
1.002912
1.004187
1.005360
1.006433
1.007374
1.008174
1.008728
1.009103
0.989363
0.989943
0.990681
0.991642
0.992747
0.993973
0.995340
0.996793
0.998469
1.000060
1.001669
1.003425
1.004964
1.006440
1.007785
1.009022
1.010118
1.010979
1.011677
0.986172
0.987189
0.988287
0.989619
0.991049
0.992645
0.994318
0.996351
0.998164
0.999987
1.001833
1.003711
1.005891
1.007704
1.009464
1.011066
1.012586
1.013863
1.015079
0.982036
0.983668
0.985315
0.987114
0.989073
0.991074
0.993662
0.995779
0.997864
0.999920
1.001998
1.004158
1.006398
1.009225
1.011432
1.013628
1.015677
1.017587
1.019534
0.976513
0.979164
0.981526
0.984145
0.986674
0.990195
0.992766
0.995219
0.997551
0.999858
1.002193
1.004606
1.007202
1.009970
1.013869
1.016696
1.019673
1.022400
1.025545
0.969128
0.973185
0.976912
0.980411
0.985573
0.988880
0.991904
0.994640
0.997251
0.999809
1.002398
1.005106
1.008004
1.011266
1.014881
1.020639
1.024593
1.028875
1.033677
0.958325
0.965395
0.970679
0.978948
0.983554
0.987563
0.990965
0.994057
0.996944
0.999759
1.002613
1.005615
1.008905
1.012592
1.016999
1.022108
1.031400
1.037429
1.045791
0.943534
0.954442
0.968663
0.975825
0.981618
0.986186
0.990086
0.993505
0.996661
0.999704
1.002791
1.006083
1.009741
1.013999
1.019067
1.025565
1.033663
1.049828
1.062687
0.913788
0.947743
0.961444
0.971626
0.978777
0.984421
0.988958
0.992840
0.996310
0.999620
1.002980
1.006605
1.010774
1.015759
1.022087
1.030231
1.042008
1.057948
1.098857
0.998287
0.998133
0.998101
0.998170
0.998339
0.998603
0.998952
0.999372
0.999841
1.000336
1.000833
1.001307
1.001734
1.002092
1.002363
1.002537
1.002607
1.002571
1.002408
0.998337
0.998189
0.998148
0.998214
0.998381
0.998642
0.998985
0.999396
0.999853
1.000336
1.000821
1.001283
1.001701
1.002054
1.002322
1.002495
1.002562
1.002517
1.002361
0.998324
0.998182
0.998146
0.998211
0.998382
0.998645
0.998990
0.999399
0.999854
1.000334
1.000816
1.001277
1.001695
1.002049
1.002322
1.002499
1.002566
1.002526
1.002374
0.998231
0.998087
0.998057
0.998134
0.998315
0.998591
0.998949
0.999371
0.999839
1.000331
1.000825
1.001300
1.001732
1.002100
1.002388
1.002577
1.002656
1.002623
1.002469
0.998023
0.997875
0.997852
0.997945
0.998154
0.998457
0.998844
0.999298
0.999798
1.000324
1.000852
1.001360
1.001826
1.002227
1.002544
1.002763
1.002862
1.002838
1.002678
0.997671
0.997523
0.997516
0.997637
0.997882
0.998234
0.998670
0.999176
0.999732
1.000313
1.000898
1.001463
1.001984
1.002437
1.002807
1.003068
1.003199
1.003193
1.003035
0.997133
0.996999
0.997022
0.997184
0.997484
0.997896
0.998411
0.998994
0.999631
1.000296
1.000966
1.001614
1.002215
1.002753
1.003190
1.003514
1.003694
1.003723
1.003581
0.996369
0.996268
0.996341
0.996565
0.996942
0.997440
0.998043
0.998744
0.999490
1.000273
1.001060
1.001821
1.002545
1.003180
1.003713
1.004124
1.004376
1.004464
1.004363
0.995318
0.995282
0.995433
0.995748
0.996229
0.996840
0.997566
0.998387
0.999306
1.000238
1.001177
1.002114
1.002969
1.003738
1.004399
1.004930
1.005289
1.005469
1.005443
0.993917
0.993990
0.994259
0.994703
0.995325
0.996084
0.996964
0.997955
0.999028
1.000193
1.001362
1.002466
1.003506
1.004446
1.005272
1.005965
1.006473
1.006793
1.006898
0.992066
0.992316
0.992761
0.993385
0.994195
0.995146
0.996233
0.997430
0.998707
1.000123
1.001567
1.002889
1.004154
1.005325
1.006368
1.007276
1.007993
1.008519
1.008834
0.989654
0.990177
0.990878
0.991749
0.992813
0.994032
0.995376
0.996812
0.998476
1.000053
1.001650
1.003393
1.004917
1.006373
1.007718
1.008913
1.009916
1.010743
1.011384
0.986503
0.987450
0.988515
0.989733
0.991166
0.992726
0.994372
0.996373
0.998165
0.999978
1.001814
1.003673
1.005821
1.007609
1.009336
1.010952
1.012351
1.013602
1.014748
0.982394
0.983969
0.985568
0.987318
0.989234
0.991193
0.993732
0.995813
0.997867
0.999910
1.001979
1.004109
1.006314
1.009089
1.011256
1.013412
1.015420
1.017285
1.019180
0.976923
0.979491
0.981948
0.984421
0.986902
0.990349
0.992865
0.995267
0.997580
0.999851
1.002150
1.004550
1.007094
1.009809
1.013625
1.016408
1.019224
1.022082
1.025143
0.969474
0.973750
0.977440
0.980774
0.985844
0.989075
0.992023
0.994739
0.997297
0.999803
1.002342
1.004998
1.007882
1.011071
1.014612
1.020267
1.024038
1.028290
1.033386
0.959622
0.966455
0.971608
0.979543
0.984017
0.987879
0.991239
0.994235
0.997032
0.999758
1.002522
1.005438
1.008634
1.012292
1.016555
1.021534
1.030436
1.036327
1.044378
0.944736
0.955552
0.969508
0.976371
0.982017
0.986587
0.990381
0.993702
0.996755
0.999698
1.002688
1.005881
1.009446
1.013607
1.018699
1.025063
1.032827
1.048661
1.061374
0.914887
0.948689
0.962204
0.971982
0.979307
0.984851
0.989292
0.993056
0.996412
0.999605
1.002850
1.006366
1.010422
1.015322
1.021561
1.029951
1.041238
1.056974
1.097582
0.998287
0.998114
0.998072
0.998137
0.998305
0.998571
0.998927
0.999355
0.999834
1.000341
1.000850
1.001334
1.001769
1.002133
1.002406
1.002579
1.002645
1.002597
1.002415
0.998361
0.998192
0.998138
0.998199
0.998364
0.998625
0.998972
0.999387
0.999851
1.000341
1.000833
1.001302
1.001725
1.002079
1.002348
1.002518
1.002579
1.002521
1.002342
0.998372
0.998206
0.998155
0.998213
0.998378
0.998641
0.998986
0.999397
0.999856
1.000339
1.000825
1.001289
1.001709
1.002063
1.002334
1.002504
1.002564
1.002509
1.002333
0.998300
0.998129
0.998082
0.998150
0.998322
0.998595
0.998951
0.999374
0.999842
1.000336
1.000832
1.001307
1.001738
1.002105
1.002388
1.002568
1.002638
1.002587
1.002405
0.998118
0.997940
0.997899
0.997982
0.998177
0.998474
0.998856
0.999307
0.999805
1.000329
1.000855
1.001361
1.001823
1.002219
1.002528
1.002734
1.002822
1.002778
1.002589
0.997787
0.997606
0.997578
0.997686
0.997914
0.998257
0.998686
0.999188
0.999739
1.000318
1.000900
1.001461
1.001976
1.002422
1.002782
1.003026
1.003143
1.003116
1.002923
0.997271
0.997099
0.997097
0.997246
0.997525
0.997926
0.998431
0.999007
0.999638
1.000301
1.000968
1.001610
1.002204
1.002731
1.003158
1.003459
1.003625
1.003629
1.003448
0.996527
0.996382
0.996428
0.996637
0.996988
0.997473
0.998065
0.998757
0.999499
1.000276
1.001058
1.001815
1.002529
1.003153
1.003673
1.004059
1.004296
1.004356
1.004209
0.995494
0.995411
0.995531
0.995830
0.996280
0.996878
0.997590
0.998405
0.999315
1.000239
1.001170
1.002099
1.002950
1.003707
1.004355
1.004855
1.005198
1.005347
1.005273
0.994110
0.994131
0.994369
0.994793
0.995381
0.996123
0.996999
0.997979
0.999039
1.000191
1.001347
1.002441
1.003470
1.004409
1.005220
1.005879
1.006370
1.006659
1.006711
0.992272
0.992472
0.992881
0.993489
0.994256
0.995205
0.996279
0.997462
0.998721
1.000118
1.001545
1.002850
1.004102
1.005262
1.006309
1.007175
1.007880
1.008372
1.008636
0.989878
0.990344
0.991015
0.991866
0.992909
0.994110
0.995436
0.996850
0.998492
1.000047
1.001620
1.003342
1.004846
1.006285
1.007617
1.008797
1.009784
1.010585
1.011170
0.986733
0.987638
0.988667
0.989915
0.991295
0.992833
0.994443
0.996416
0.998183
0.999970
1.001781
1.003614
1.005734
1.007488
1.009197
1.010761
1.012206
1.013426
1.014532
0.982642
0.984168
0.985819
0.987560
0.989410
0.991323
0.993821
0.995859
0.997881
0.999902
1.001949
1.004047
1.006209
1.008943
1.011066
1.013156
1.015162
1.017105
1.018953
0.977125
0.979824
0.982273
0.984736
0.987108
0.990507
0.992961
0.995317
0.997591
0.999842
1.002122
1.004484
1.006986
1.009639
1.013407
1.016074
1.018891
1.021752
1.024992
0.970179
0.974367
0.978005
0.981242
0.986164
0.989295
0.992167
0.994814
0.997339
0.999796
1.002287
1.004914
1.007735
1.010851
1.014292
1.019786
1.023458
1.027658
1.032642
0.960302
0.967128
0.972165
0.980022
0.984302
0.988087
0.991367
0.994337
0.997079
0.999751
1.002464
1.005327
1.008510
1.012094
1.016289
1.021058
1.029880
1.035635
1.043668
0.945357
0.956164
0.970078
0.976786
0.982269
0.986762
0.990557
0.993817
0.996810
0.999692
1.002621
1.005759
1.009271
1.013449
1.018481
1.024673
1.032271
1.048049
1.060724
0.915322
0.949191
0.962629
0.972318
0.979450
0.985098
0.989485
0.993192
0.996476
0.999597
1.002772
1.006219
1.010226
1.015083
1.021469
1.029636
1.040844
1.056492
1.097121
0.998286
0.998095
0.998042
0.998101
0.998268
0.998538
0.998900
0.999337
0.999827
1.000346
1.000867
1.001362
1.001806
1.002175
1.002451
1.002622
1.002682
1.002624
1.002422
0.998382
0.998192
0.998126
0.998180
0.998342
0.998605
0.998955
0.999376
0.999847
1.000345
1.000845
1.001322
1.001750
1.002108
1.002378
1.002545
1.002599
1.002528
1.002328
0.998412
0.998223
0.998159
0.998208
0.998370
0.998631
0.998977
0.999392
0.999855
1.000344
1.000834
1.001303
1.001725
1.002081
1.002350
1.002517
1.002567
1.002498
1.002299
0.998360
0.998163
0.998100
0.998158
0.998325
0.998594
0.998949
0.999373
0.999844
1.000340
1.000839
1.001316
1.001749
1.002115
1.002393
1.002568
1.002628
1.002560
1.002351
0.998196
0.997988
0.997929
0.997999
0.998189
0.998478
0.998859
0.999309
0.999808
1.000333
1.000861
1.001367
1.001829
1.002222
1.002525
1.002724
1.002800
1.002737
1.002516
0.997885
0.997670
0.997621
0.997716
0.997936
0.998270
0.998694
0.999193
0.999743
1.000322
1.000904
1.001463
1.001976
1.002417
1.002768
1.003004
1.003109
1.003059
1.002832
0.997385
0.997176
0.997151
0.997284
0.997554
0.997943
0.998443
0.999014
0.999643
1.000303
1.000968
1.001609
1.002199
1.002721
1.003136
1.003430
1.003580
1.003560
1.003340
0.996655
0.996471
0.996490
0.996684
0.997025
0.997496
0.998081
0.998770
0.999506
1.000277
1.001054
1.001807
1.002519
1.003137
1.003644
1.004021
1.004243
1.004277
1.004088
0.995636
0.995509
0.995603
0.995884
0.996326
0.996907
0.997616
0.998423
0.999325
1.000238
1.001160
1.002081
1.002926
1.003683
1.004316
1.004810
1.005137
1.005259
1.005138
0.994262
0.994239
0.994448
0.994857
0.995436
0.996169
0.997037
0.998005
0.999052
1.000189
1.001331
1.002411
1.003431
1.004364
1.005171
1.005824
1.006301
1.006563
1.006568
0.992435
0.992588
0.992972
0.993563
0.994338
0.995269
0.996332
0.997497
0.998737
1.000114
1.001520
1.002807
1.004043
1.005196
1.006226
1.007108
1.007799
1.008269
1.008484
0.990043
0.990472
0.991117
0.991981
0.993019
0.994196
0.995502
0.996895
0.998512
1.000041
1.001589
1.003286
1.004769
1.006191
1.007501
1.008683
1.009694
1.010471
1.011020
0.986907
0.987773
0.988829
0.990070
0.991444
0.992939
0.994524
0.996468
0.998206
0.999964
1.001744
1.003549
1.005640
1.007371
1.009037
1.010602
1.012047
1.013309
1.014378
0.982789
0.984380
0.986029
0.987765
0.989590
0.991451
0.993910
0.995912
0.997903
0.999894
1.001911
1.003978
1.006106
1.008801
1.010872
1.012941
1.014952
1.016900
1.018844
0.977545
0.980200
0.982627
0.985038
0.987366
0.990676
0.993077
0.995379
0.997612
0.999834
1.002086
1.004408
1.006858
1.009462
1.013135
1.015764
1.018530
1.021372
1.024559
0.970597
0.974790
0.978371
0.981565
0.986422
0.989460
0.992268
0.994868
0.997351
0.999788
1.002260
1.004850
1.007627
1.010683
1.014030
1.019458
1.023092
1.027229
1.032217
0.960707
0.967534
0.972556
0.980338
0.984557
0.988226
0.991456
0.994379
0.997104
0.999744
1.002426
1.005278
1.008419
1.011963
1.016037
1.020755
1.029493
1.035233
1.043260
0.945674
0.956523
0.970424
0.977089
0.982477
0.986876
0.990625
0.993883
0.996840
0.999686
1.002581
1.005687
1.009207
1.013353
1.018290
1.024389
1.031951
1.047708
1.060416
0.915529
0.949461
0.962900
0.972533
0.979612
0.985156
0.989596
0.993269
0.996516
0.999593
1.002724
1.006139
1.010118
1.015054
1.021325
1.029452
1.040609
1.056264
1.096932
0.998284
0.998078
0.998015
0.998070
0.998235
0.998508
0.998875
0.999320
0.999820
1.000350
1.000882
1.001387
1.001838
1.002213
1.002491
1.002661
1.002715
1.002647
1.002430
0.998397
0.998190
0.998113
0.998160
0.998320
0.998584
0.998938
0.999365
0.999843
1.000349
1.000857
1.001341
1.001775
1.002136
1.002406
1.002571
1.002618
1.002536
1.002319
0.998442
0.998236
0.998158
0.998200
0.998358
0.998618
0.998966
0.999385
0.999853
1.000347
1.000843